1         ******************************************************
          *            GAMESS VERSION =  1 DEC 1998            *
          *             FROM IOWA STATE UNIVERSITY             *
          * M.W.SCHMIDT, K.K.BALDRIDGE, J.A.BOATZ, S.T.ELBERT, *
          *   M.S.GORDON, J.H.JENSEN, S.KOSEKI, N.MATSUNAGA,   *
          *          K.A.NGUYEN, S.J.SU, T.L.WINDUS,           *
          *       TOGETHER WITH M.DUPUIS, J.A.MONTGOMERY       *
          *         J.COMPUT.CHEM.  14, 1347-1363(1993)        *
          *********** POWER MACINTOSH (MAC) VERSION ************

 EXECUTION OF GAMESS BEGUN 16:59:53 02-03-2000     

            ECHO OF THE FIRST FEW INPUT CARDS -
 INPUT CARD>!                                                                               
 INPUT CARD> $CONTRL SCFTYP=RHF  RUNTYP=OPTIMIZE   UNITS=ANGS $END                          
 INPUT CARD> $SYSTEM TIMLIM=600 MEMORY=200000 $END                                          
 INPUT CARD> $SCF    DIRSCF=.True. $END                                                     
 INPUT CARD> $GUESS  GUESS=HUCKEL   $END                                                    
 INPUT CARD> $BASIS  GBASIS=N21 NGAUSS=3 NDFUNC=1 $END                                      
 INPUT CARD> $DATA                                                                          
 INPUT CARD>RHF/6-31G*//RHF/3-21G* Cl2O                                                     
 INPUT CARD>Cnv      2                                                                      
 INPUT CARD>                                                                                
 INPUT CARD>O       8.0     0.00000    0.0    0.0                                           
 INPUT CARD>Cl1    17.0    -1.5298     0.0     0.12681                                      
 INPUT CARD> $END                                                                           
     200000 WORDS OF MEMORY AVAILABLE

     BASIS OPTIONS
     -------------
     GBASIS=N21          IGAUSS=       3      POLAR=POPLE   
     NDFUNC=       1     DIFFSP=       F
     NPFUNC=       0      DIFFS=       F


     RUN TITLE
     ---------
 RHF/6-31G*//RHF/3-21G* Cl2O                                                     

 THE POINT GROUP OF THE MOLECULE IS CNV     
 THE ORDER OF THE PRINCIPAL AXIS IS     2

 ATOM      ATOMIC                      COORDINATES (BOHR)
           CHARGE         X                   Y                   Z
 O           8.0      .0000000000         .0000000000         .0000000000
 CL1        17.0     2.8909028160         .0000000000         .2396361525
 CL1        17.0    -2.8909028160         .0000000000         .2396361525

          INTERNUCLEAR DISTANCES (ANGS.)
          ------------------------------

                    O              CL1            CL1       

  1  O                .0000000      1.5350468 *    1.5350468 *  
  2  CL1             1.5350468 *     .0000000      3.0596000    
  3  CL1             1.5350468 *    3.0596000       .0000000    

  * ... LESS THAN  3.000


     ATOMIC BASIS SET
     ----------------
 THE CONTRACTED PRIMITIVE FUNCTIONS HAVE BEEN UNNORMALIZED
 THE CONTRACTED BASIS FUNCTIONS ARE NOW NORMALIZED TO UNITY

 SHELL TYPE PRIM    EXPONENT          CONTRACTION COEFFICIENTS

 O         

   1   S    1     322.037000    3.209593 (   .059239) 
   1   S    2      48.430800    4.599140 (   .351500) 
   1   S    3      10.420600    2.925183 (   .707658) 

   2   L    4       7.402940   -1.293695 (  -.404453)     4.257230 (   .244586) 
   2   L    5       1.576200    1.224712 (  1.221560)     2.149757 (   .853955) 

   3   L    6        .373684     .340634 (  1.000000)      .416458 (  1.000000) 

 CL1       

   9   S    7    1376.400000   10.401232 (   .064583) 
   9   S    8     207.857000   14.839930 (   .380363) 
   9   S    9      45.155400    8.419645 (   .678190) 

  10   L   10      60.801400   -1.532653 (  -.098764)    26.281741 (   .108598) 
  10   L   11      13.976500     .263431 (   .051134)    17.668515 (   .458682) 
  10   L   12       3.887100    1.955919 (   .991337)     4.683187 (   .601962) 

  11   L   13       1.352990    -.198847 (  -.222401)      .455964 (   .219216) 
  11   L   14        .526955     .521254 (  1.182520)      .526257 (   .822321) 

  12   L   15        .166714     .185947 (  1.000000)      .151847 (  1.000000) 

  13   D   16        .750000     .994871 (  1.000000) 

 TOTAL NUMBER OF SHELLS              =   13
 TOTAL NUMBER OF BASIS FUNCTIONS     =   47
 NUMBER OF ELECTRONS                 =   42
 CHARGE OF MOLECULE                  =    0
 STATE MULTIPLICITY                  =    1
 NUMBER OF OCCUPIED ORBITALS (ALPHA) =   21
 NUMBER OF OCCUPIED ORBITALS (BETA ) =   21
 TOTAL NUMBER OF ATOMS               =    3
 THE NUCLEAR REPULSION ENERGY IS      143.7510427492

     $CONTRL OPTIONS
     ---------------
     SCFTYP=RHF          RUNTYP=OPTIMIZE     EXETYP=RUN     
     MPLEVL=       0     LOCAL =NONE         UNITS =ANGS    
     MULT  =       1     ICHARG=       0     MAXIT =      30
     NPRINT=       7     IREST =       0     COORD =UNIQUE  
     ECP   =NONE         NORMF =       0     NORMP =       0
     ITOL  =      20     ICUT  =       9     NZVAR =       0
     NOSYM =       0     INTTYP=POPLE        GEOM  =INPUT   
     PLTORB=       F     MOLPLT=       F     RPAC  =       F
     AIMPAC=       F     FRIEND=             CITYP =NONE    
     ISPHER=      -1     QMTTOL= 1.0E-06

     $SYSTEM OPTIONS
     ---------------
     KDIAG =       0     MEMORY=  200000     TIMLIM=    36000.0 SEC.
     COREFL=       F     PTIME =       F     XDR   =       F
     BALTYP=NXTVAL  

          ----------------
          PROPERTIES INPUT
          ----------------

     MOMENTS            FIELD           POTENTIAL          DENSITY
 IEMOM =       1   IEFLD =       0   IEPOT =       0   IEDEN =       0
 WHERE =COMASS     WHERE =NUCLEI     WHERE =NUCLEI     WHERE =NUCLEI  
 OUTPUT=BOTH       OUTPUT=BOTH       OUTPUT=BOTH       OUTPUT=BOTH    
 IEMINT=       0   IEFINT=       0                     IEDINT=       0
                                                       MORB  =       0
          EXTRAPOLATION IN EFFECT
          SOSCF IN EFFECT

          ----------------------
          INTEGRAL INPUT OPTIONS
          ----------------------
 NOPK  =       1 NORDER=       0 SCHWRZ=       T

     -------------------------------
     INTEGRAL TRANSFORMATION OPTIONS
     -------------------------------
     NWORD  =       0     CUTOFF = 1.0E-09
     MPTRAN =       0     DIRTRF =       T
     AOINTS =DUP     

     ------------------------------------------
     THE POINT GROUP IS CNV, NAXIS= 2, ORDER= 4
     ------------------------------------------

     DIMENSIONS OF THE SYMMETRY SUBSPACES ARE
 A1  =  19      A2  =   5      B1  =  16      B2  =   7

 ..... DONE SETTING UP THE RUN .....
 STEP CPU TIME =      .22 TOTAL CPU TIME =         .1 (     .0 MIN)
 TOTAL WALL CLOCK TIME=         .1 SECONDS, CPU UTILIZATION IS 100.00%


          -----------------------------
          STATIONARY POINT LOCATION RUN
          -----------------------------

 OBTAINING INITIAL HESSIAN, HESS=GUESS   
 DIAGONAL GUESS HESSIAN IN CARTESIAN COORDS IS H(I,I)=   .3333

          PARAMETERS CONTROLLING GEOMETRY SEARCH ARE
          METHOD =QA                  UPHESS =BFGS    
          NNEG   =         0          NFRZ   =         0
          NSTEP  =        20          IFOLOW =         1
          HESS   =GUESS               RESTAR =         F
          IHREP  =         0          HSSEND =         F
          NPRT   =         0          NPUN   =         0
          OPTTOL = 1.000E-04          RMIN   = 1.500E-03
          RMAX   = 1.000E-01          RLIM   = 7.000E-02
          DXMAX  = 3.000E-01          PURIFY =         F
          MOVIE  =         F          TRUPD  =         T
          TRMAX  = 5.000E-01          TRMIN  = 5.000E-02
          ITBMAT =         5          STPT   =         F
          STSTEP = 1.000E-02          PROJCT=          T
1NSERCH=   0

 COORDINATES OF SYMMETRY UNIQUE ATOMS (ANGS)
   ATOM   CHARGE       X              Y              Z
 ------------------------------------------------------------
 O           8.0    .0000000000    .0000000000    .0000000000
 CL1        17.0  -1.5298000000    .0000000000    .1268100000
 COORDINATES OF ALL ATOMS ARE (ANGS)
   ATOM   CHARGE       X              Y              Z
 ------------------------------------------------------------
 O           8.0    .0000000000    .0000000000    .0000000000
 CL1        17.0   1.5298000000    .0000000000    .1268100000
 CL1        17.0  -1.5298000000    .0000000000    .1268100000

          ********************
          1 ELECTRON INTEGRALS
          ********************
 ...... END OF ONE-ELECTRON INTEGRALS ......
 STEP CPU TIME =      .02 TOTAL CPU TIME =         .2 (     .0 MIN)
 TOTAL WALL CLOCK TIME=         .2 SECONDS, CPU UTILIZATION IS 100.00%

          GUESS OPTIONS
          -------------
          GUESS =HUCKEL  
          NORB  =       0          NORDER=       0
          TOLZ  = 1.0E-08          TOLE  = 1.0E-05
          MIX   =       F          PRTMO =       F

 INITIAL GUESS ORBITALS GENERATED BY HUCKEL   ROUTINE.
 HUCKEL GUESS REQUIRES     16495 WORDS.

 SYMMETRIES FOR INITIAL GUESS ORBITALS FOLLOW.   BOTH SET(S).
    21 ORBITALS ARE OCCUPIED (   11 CORE ORBITALS).
    12=A1      13=B1      14=A1      15=B2      16=A1      17=B1      18=A2  
    19=B1      20=A1      21=B2      22=A1      23=B1      24=A1      25=A1  
    26=A1      27=A1      28=A1      29=A1      30=A1      31=A1  
 ...... END OF INITIAL ORBITAL SELECTION ......
 STEP CPU TIME =      .33 TOTAL CPU TIME =         .5 (     .0 MIN)
 TOTAL WALL CLOCK TIME=         .5 SECONDS, CPU UTILIZATION IS 100.00%

          --------------------
          2 ELECTRON INTEGRALS
          --------------------

 DIRECT SCF METHOD SKIPS INTEGRAL STORAGE ON DISK.
 DIRECT TRANSFORMATION SKIPS AO INTEGRAL STORAGE ON DISK.
  ...... END OF TWO-ELECTRON INTEGRALS .....
 STEP CPU TIME =      .02 TOTAL CPU TIME =         .5 (     .0 MIN)
 TOTAL WALL CLOCK TIME=         .5 SECONDS, CPU UTILIZATION IS 100.00%

          -------------------
          RHF SCF CALCULATION
          -------------------

     NUCLEAR ENERGY =       143.7510427492
     MAXIT =   30     NPUNCH=    2
     EXTRAP=T  DAMP=F  SHIFT=F  RSTRCT=F  DIIS=F  DEM=F  SOSCF=T
     DENSITY CONV=  2.00E-05
     SOSCF WILL OPTIMIZE     546 ORBITAL ROTATIONS, SOGTOL=    .250
     MEMORY REQUIRED FOR RHF STEP=     34183 WORDS.

 DIRECT SCF CALCULATION, SCHWRZ=T   FDIFF=T
 SCHWARZ INEQUALITY OVERHEAD:      1093 INTEGRALS, T=         .00

                                                                              NONZERO    BLOCKS
 ITER EX DEM  TOTAL ENERGY      E CHANGE  DENSITY CHANGE     ORB. GRAD      INTEGRALS   SKIPPED
   1  0  0  -988.266885205  -988.266885205    .597458406    .000000000         108559       484
          ---------------START SECOND ORDER SCF---------------
   2  1  0  -988.989289890     -.722404685    .092932536    .070838428         108620       502
   3  2  0  -989.015757252     -.026467362    .072504686    .029671452         108485       543
   4  3  0  -989.020935600     -.005178348    .005596390    .004078367         108224       571
   5  4  0  -989.021132708     -.000197108    .005522327    .001696986         107615       624
   6  5  0  -989.021183163     -.000050455    .005280829    .000952500         107479       629
   7  6  0  -989.021202581     -.000019418    .001193243    .000338642         107458       630
   8  7  0  -989.021204669     -.000002089    .000414286    .000153390         106283       669
   9  8  0  -989.021204962     -.000000292    .000041786    .000031526         104088       724
  10  9  0  -989.021204971     -.000000009    .000013073    .000005556         101230       791
  11 10  0  -989.021204971      .000000000    .000001932    .000001456          99575       830

          -----------------
          DENSITY CONVERGED
          -----------------
     TIME TO FORM FOCK OPERATORS=       3.8 SECONDS (        .3 SEC/ITER)
     FOCK TIME ON FIRST ITERATION=        .3, LAST ITERATION=        .3
     TIME TO SOLVE SCF EQUATIONS=        .3 SECONDS (        .0 SEC/ITER)

 FINAL ENERGY IS     -989.0212049713 AFTER  11 ITERATIONS

          ------------
          EIGENVECTORS
          ------------

                      1          2          3          4          5
                 -104.3168  -104.3164   -20.4935   -10.6115   -10.6114
                     B1         A1         A1         B1         A1  
    1  O   1  S    .000000    .000102    .983353    .000000   -.000153
    2  O   1  S    .000000    .000025    .098636    .000000    .000389
    3  O   1  X    .000193    .000000    .000000    .000922    .000000
    4  O   1  Y    .000000    .000000    .000000    .000000    .000000
    5  O   1  Z    .000000   -.000006    .000976    .000000    .000092
    6  O   1  S    .000000    .000434   -.044643    .000000   -.000373
    7  O   1  X   -.002784    .000000    .000000   -.003816    .000000
    8  O   1  Y    .000000    .000000    .000000    .000000    .000000
    9  O   1  Z    .000000   -.000120   -.001458    .000000   -.000205
   10  CL  2  S    .696117    .696127    .000031   -.213598   -.213594
   11  CL  2  S    .053750    .053436   -.000541    .656927    .656671
   12  CL  2  X    .000145   -.000076    .000221   -.006096   -.006281
   13  CL  2  Y    .000000    .000000    .000000    .000000    .000000
   14  CL  2  Z    .000010    .000000   -.000001   -.000286   -.000293
   15  CL  2  S   -.063979   -.063144   -.001264    .214612    .215099
   16  CL  2  X   -.001006    .000107   -.001219   -.002476   -.001177
   17  CL  2  Y    .000000    .000000    .000000    .000000    .000000
   18  CL  2  Z   -.000051   -.000015   -.000019   -.000123   -.000073
   19  CL  2  S   -.004115   -.004091    .009109   -.008347   -.008175
   20  CL  2  X    .000007   -.000105   -.007577    .000198   -.000042
   21  CL  2  Y    .000000    .000000    .000000    .000000    .000000
   22  CL  2  Z   -.000113    .000063   -.000532   -.000131    .000074
   23  CL  2 XX    .026220    .024904    .002149   -.058897   -.060171
   24  CL  2 YY    .025417    .024920   -.001735   -.060499   -.060958
   25  CL  2 ZZ    .025428    .024916   -.001737   -.060481   -.060958
   26  CL  2 XY    .000000    .000000    .000000    .000000    .000000
   27  CL  2 XZ    .000125   -.000031    .000200    .000194    .000015
   28  CL  2 YZ    .000000    .000000    .000000    .000000    .000000
   29  CL  3  S   -.696117    .696127    .000031    .213598   -.213594
   30  CL  3  S   -.053750    .053436   -.000541   -.656927    .656671
   31  CL  3  X    .000145    .000076   -.000221   -.006096    .006281
   32  CL  3  Y    .000000    .000000    .000000    .000000    .000000
   33  CL  3  Z   -.000010    .000000   -.000001    .000286   -.000293
   34  CL  3  S    .063979   -.063144   -.001264   -.214612    .215099
   35  CL  3  X   -.001006   -.000107    .001219   -.002476    .001177
   36  CL  3  Y    .000000    .000000    .000000    .000000    .000000
   37  CL  3  Z    .000051   -.000015   -.000019    .000123   -.000073
   38  CL  3  S    .004115   -.004091    .009109    .008347   -.008175
   39  CL  3  X    .000007    .000105    .007577    .000198    .000042
   40  CL  3  Y    .000000    .000000    .000000    .000000    .000000
   41  CL  3  Z    .000113    .000063   -.000532    .000131    .000074
   42  CL  3 XX   -.026220    .024904    .002149    .058897   -.060171
   43  CL  3 YY   -.025417    .024920   -.001735    .060499   -.060958
   44  CL  3 ZZ   -.025428    .024916   -.001737    .060481   -.060958
   45  CL  3 XY    .000000    .000000    .000000    .000000    .000000
   46  CL  3 XZ    .000125    .000031   -.000200    .000194   -.000015
   47  CL  3 YZ    .000000    .000000    .000000    .000000    .000000

                      6          7          8          9         10
                   -8.0795    -8.0782    -8.0721    -8.0721    -8.0720
                     B1         A1         B1         A2         A1  
    1  O   1  S    .000000   -.000335    .000000    .000000    .000016
    2  O   1  S    .000000   -.002539    .000000    .000000    .000144
    3  O   1  X   -.003084    .000000   -.000162    .000000    .000000
    4  O   1  Y    .000000    .000000    .000000    .000000    .000000
    5  O   1  Z    .000000   -.000114    .000000    .000000    .000026
    6  O   1  S    .000000    .004649    .000000    .000000   -.000572
    7  O   1  X    .026976    .000000    .001086    .000000    .000000
    8  O   1  Y    .000000    .000000    .000000    .000000    .000000
    9  O   1  Z    .000000    .001319    .000000    .000000    .001098
   10  CL  2  S   -.002094   -.002104    .000037    .000000    .000028
   11  CL  2  S    .005990    .007432   -.000127    .000000   -.000126
   12  CL  2  X    .685715    .687394   -.044524    .000000   -.041131
   13  CL  2  Y    .000000    .000000    .000000    .689623    .000000
   14  CL  2  Z    .044371    .041086    .688179    .000000    .688554
   15  CL  2  S    .003895    .000411    .000282    .000000   -.000038
   16  CL  2  X    .063733    .056118   -.003445    .000000   -.003178
   17  CL  2  Y    .000000    .000000    .000000    .053915    .000000
   18  CL  2  Z    .004068    .003375    .053824    .000000    .053035
   19  CL  2  S   -.005168   -.003940   -.000844    .000000    .000340
   20  CL  2  X   -.012547   -.013098    .001729    .000000    .000658
   21  CL  2  Y    .000000    .000000    .000000   -.016141    .000000
   22  CL  2  Z    .000027   -.001165   -.016064    .000000   -.014744
   23  CL  2 XX   -.009583   -.001310   -.000233    .000000    .000034
   24  CL  2 YY   -.000845    .001450    .000123    .000000   -.000102
   25  CL  2 ZZ   -.000954    .001464    .000078    .000000   -.000121
   26  CL  2 XY    .000000    .000000    .000000   -.000352    .000000
   27  CL  2 XZ   -.001187    .000002   -.000392    .000000   -.000413
   28  CL  2 YZ    .000000    .000000    .000000   -.000024    .000000
   29  CL  3  S    .002094   -.002104   -.000037    .000000    .000028
   30  CL  3  S   -.005990    .007432    .000127    .000000   -.000126
   31  CL  3  X    .685715   -.687394   -.044524    .000000    .041131
   32  CL  3  Y    .000000    .000000    .000000   -.689623    .000000
   33  CL  3  Z   -.044371    .041086   -.688179    .000000    .688554
   34  CL  3  S   -.003895    .000411   -.000282    .000000   -.000038
   35  CL  3  X    .063733   -.056118   -.003445    .000000    .003178
   36  CL  3  Y    .000000    .000000    .000000   -.053915    .000000
   37  CL  3  Z   -.004068    .003375   -.053824    .000000    .053035
   38  CL  3  S    .005168   -.003940    .000844    .000000    .000340
   39  CL  3  X   -.012547    .013098    .001729    .000000   -.000658
   40  CL  3  Y    .000000    .000000    .000000    .016141    .000000
   41  CL  3  Z   -.000027   -.001165    .016064    .000000   -.014744
   42  CL  3 XX    .009583   -.001310    .000233    .000000    .000034
   43  CL  3 YY    .000845    .001450   -.000123    .000000   -.000102
   44  CL  3 ZZ    .000954    .001464   -.000078    .000000   -.000121
   45  CL  3 XY    .000000    .000000    .000000   -.000352    .000000
   46  CL  3 XZ   -.001187   -.000002   -.000392    .000000    .000413
   47  CL  3 YZ    .000000    .000000    .000000    .000024    .000000

                     11         12         13         14         15
                   -8.0719    -1.4782    -1.1941     -.9556     -.7115
                     B2         A1         B1         A1         B1  
    1  O   1  S    .000000   -.207064    .000000   -.112184    .000000
    2  O   1  S    .000000    .194671    .000000    .098409    .000000
    3  O   1  X    .000000    .000000    .198001    .000000    .300215
    4  O   1  Y    .000023    .000000    .000000    .000000    .000000
    5  O   1  Z    .000000    .017172    .000000   -.012165    .000000
    6  O   1  S    .000000    .632963    .000000    .439265    .000000
    7  O   1  X    .000000    .000000    .194159    .000000    .370734
    8  O   1  Y    .001116    .000000    .000000    .000000    .000000
    9  O   1  Z    .000000    .021656    .000000   -.008759    .000000
   10  CL  2  S    .000000    .026661    .051363   -.050255   -.022673
   11  CL  2  S    .000000   -.146619   -.292692    .293280    .137686
   12  CL  2  X    .000000    .054540    .038019    .064411    .150457
   13  CL  2  Y    .689784    .000000    .000000    .000000    .000000
   14  CL  2  Z    .000000    .003623    .003877    .006519    .020372
   15  CL  2  S    .000000    .176612    .360124   -.372558   -.173683
   16  CL  2  X    .000000   -.099899   -.066212   -.128361   -.304907
   17  CL  2  Y    .053121    .000000    .000000    .000000    .000000
   18  CL  2  Z    .000000   -.006636   -.007397   -.012874   -.042931
   19  CL  2  S    .000000    .075600    .236486   -.336923   -.271952
   20  CL  2  X    .000000    .004981    .003010   -.054848   -.117032
   21  CL  2  Y   -.014753    .000000    .000000    .000000    .000000
   22  CL  2  Z    .000000   -.000425    .002372   -.006561   -.018746
   23  CL  2 XX    .000000    .050399    .045689    .009072    .055623
   24  CL  2 YY    .000000    .000577    .009350   -.029318   -.029742
   25  CL  2 ZZ    .000000    .000873    .009508   -.029020   -.029263
   26  CL  2 XY   -.000419    .000000    .000000    .000000    .000000
   27  CL  2 XZ    .000000    .003907    .002431    .004222    .007413
   28  CL  2 YZ   -.000011    .000000    .000000    .000000    .000000
   29  CL  3  S    .000000    .026661   -.051363   -.050255    .022673
   30  CL  3  S    .000000   -.146619    .292692    .293280   -.137686
   31  CL  3  X    .000000   -.054540    .038019   -.064411    .150457
   32  CL  3  Y    .689784    .000000    .000000    .000000    .000000
   33  CL  3  Z    .000000    .003623   -.003877    .006519   -.020372
   34  CL  3  S    .000000    .176612   -.360124   -.372558    .173683
   35  CL  3  X    .000000    .099899   -.066212    .128361   -.304907
   36  CL  3  Y    .053121    .000000    .000000    .000000    .000000
   37  CL  3  Z    .000000   -.006636    .007397   -.012874    .042931
   38  CL  3  S    .000000    .075600   -.236486   -.336923    .271952
   39  CL  3  X    .000000   -.004981    .003010    .054848   -.117032
   40  CL  3  Y   -.014753    .000000    .000000    .000000    .000000
   41  CL  3  Z    .000000   -.000425   -.002372   -.006561    .018746
   42  CL  3 XX    .000000    .050399   -.045689    .009072   -.055623
   43  CL  3 YY    .000000    .000577   -.009350   -.029318    .029742
   44  CL  3 ZZ    .000000    .000873   -.009508   -.029020    .029263
   45  CL  3 XY    .000419    .000000    .000000    .000000    .000000
   46  CL  3 XZ    .000000   -.003907    .002431   -.004222    .007413
   47  CL  3 YZ   -.000011    .000000    .000000    .000000    .000000

                     16         17         18         19         20
                    -.6798     -.6780     -.5094     -.5085     -.3871
                     B2         A1         A2         B1         A1  
    1  O   1  S    .000000    .009856    .000000    .000000    .016063
    2  O   1  S    .000000   -.012947    .000000    .000000   -.015536
    3  O   1  X    .000000    .000000    .000000    .012591    .000000
    4  O   1  Y    .393325    .000000    .000000    .000000    .000000
    5  O   1  Z    .000000    .389526    .000000    .000000    .346638
    6  O   1  S    .000000   -.033332    .000000    .000000   -.076021
    7  O   1  X    .000000    .000000    .000000    .016058    .000000
    8  O   1  Y    .438088    .000000    .000000    .000000    .000000
    9  O   1  Z    .000000    .435364    .000000    .000000    .472305
   10  CL  2  S    .000000   -.001428    .000000   -.000597    .000936
   11  CL  2  S    .000000    .008674    .000000    .003893   -.004715
   12  CL  2  X    .000000    .021213    .000000    .024283    .009983
   13  CL  2  Y   -.119281    .000000   -.206317    .000000    .000000
   14  CL  2  Z    .000000   -.118502    .000000   -.204897    .170078
   15  CL  2  S    .000000   -.010973    .000000   -.007425    .013299
   16  CL  2  X    .000000   -.044490    .000000   -.052255   -.022740
   17  CL  2  Y    .257475    .000000    .460413    .000000    .000000
   18  CL  2  Z    .000000    .255967    .000000    .457362   -.389603
   19  CL  2  S    .000000   -.018421    .000000   -.005418   -.016477
   20  CL  2  X    .000000   -.023794    .000000   -.038595   -.001252
   21  CL  2  Y    .169313    .000000    .353062    .000000    .000000
   22  CL  2  Z    .000000    .169328    .000000    .351308   -.318728
   23  CL  2 XX    .000000    .009155    .000000    .005699    .012162
   24  CL  2 YY    .000000   -.002455    .000000   -.002045    .001102
   25  CL  2 ZZ    .000000   -.006832    .000000   -.002162   -.005661
   26  CL  2 XY   -.038081    .000000   -.005594    .000000    .000000
   27  CL  2 XZ    .000000   -.037052    .000000   -.005155   -.041837
   28  CL  2 YZ   -.002569    .000000   -.000073    .000000    .000000
   29  CL  3  S    .000000   -.001428    .000000    .000597    .000936
   30  CL  3  S    .000000    .008674    .000000   -.003893   -.004715
   31  CL  3  X    .000000   -.021213    .000000    .024283   -.009983
   32  CL  3  Y   -.119281    .000000    .206317    .000000    .000000
   33  CL  3  Z    .000000   -.118502    .000000    .204897    .170078
   34  CL  3  S    .000000   -.010973    .000000    .007425    .013299
   35  CL  3  X    .000000    .044490    .000000   -.052255    .022740
   36  CL  3  Y    .257475    .000000   -.460413    .000000    .000000
   37  CL  3  Z    .000000    .255967    .000000   -.457362   -.389603
   38  CL  3  S    .000000   -.018421    .000000    .005418   -.016477
   39  CL  3  X    .000000    .023794    .000000   -.038595    .001252
   40  CL  3  Y    .169313    .000000   -.353062    .000000    .000000
   41  CL  3  Z    .000000    .169328    .000000   -.351308   -.318728
   42  CL  3 XX    .000000    .009155    .000000   -.005699    .012162
   43  CL  3 YY    .000000   -.002455    .000000    .002045    .001102
   44  CL  3 ZZ    .000000   -.006832    .000000    .002162   -.005661
   45  CL  3 XY    .038081    .000000   -.005594    .000000    .000000
   46  CL  3 XZ    .000000    .037052    .000000   -.005155    .041837
   47  CL  3 YZ   -.002569    .000000    .000073    .000000    .000000

                     21         22         23         24         25
                    -.3858      .0670      .2720      .5263      .6455
                     B2         A1         B1         A1         B1  
    1  O   1  S    .000000   -.131920    .000000    .018450    .000000
    2  O   1  S    .000000    .084404    .000000    .029686    .000000
    3  O   1  X    .000000    .000000    .316558    .000000    .013581
    4  O   1  Y    .350683    .000000    .000000    .000000    .000000
    5  O   1  Z    .000000    .061034    .000000    .011425    .000000
    6  O   1  S    .000000    .914435    .000000   -.698977    .000000
    7  O   1  X    .000000    .000000    .792707    .000000   -.190600
    8  O   1  Y    .477474    .000000    .000000    .000000    .000000
    9  O   1  Z    .000000    .098273    .000000   -.006142    .000000
   10  CL  2  S    .000000   -.015768   -.013662   -.032224   -.038976
   11  CL  2  S    .000000    .091129    .087524    .150299    .194118
   12  CL  2  X    .000000   -.182654   -.087305   -.097800    .082909
   13  CL  2  Y    .169665    .000000    .000000    .000000    .000000
   14  CL  2  Z    .000000   -.004591   -.007761    .008705   -.003940
   15  CL  2  S    .000000   -.146147   -.055620   -.836370  -1.009149
   16  CL  2  X    .000000    .408969    .168775    .352695   -.276973
   17  CL  2  Y   -.388764    .000000    .000000    .000000    .000000
   18  CL  2  Z    .000000    .010119    .015844   -.024465    .014510
   19  CL  2  S    .000000   -.100424   -.461462   1.201814   1.355889
   20  CL  2  X    .000000    .509800    .820903   -.521842    .092538
   21  CL  2  Y   -.319633    .000000    .000000    .000000    .000000
   22  CL  2  Z    .000000    .013187    .072818   -.009576   -.028732
   23  CL  2 XX    .000000    .029143    .129137   -.249215   -.175808
   24  CL  2 YY    .000000   -.043465   -.074271   -.062165   -.093442
   25  CL  2 ZZ    .000000   -.044728   -.071586   -.064639   -.094124
   26  CL  2 XY   -.043625    .000000    .000000    .000000    .000000
   27  CL  2 XZ    .000000   -.003685    .027265   -.032681   -.005795
   28  CL  2 YZ   -.004015    .000000    .000000    .000000    .000000
   29  CL  3  S    .000000   -.015768    .013662   -.032224    .038976
   30  CL  3  S    .000000    .091129   -.087524    .150299   -.194118
   31  CL  3  X    .000000    .182654   -.087305    .097800    .082909
   32  CL  3  Y    .169665    .000000    .000000    .000000    .000000
   33  CL  3  Z    .000000   -.004591    .007761    .008705    .003940
   34  CL  3  S    .000000   -.146147    .055620   -.836370   1.009149
   35  CL  3  X    .000000   -.408969    .168775   -.352695   -.276973
   36  CL  3  Y   -.388764    .000000    .000000    .000000    .000000
   37  CL  3  Z    .000000    .010119   -.015844   -.024465   -.014510
   38  CL  3  S    .000000   -.100424    .461462   1.201814  -1.355889
   39  CL  3  X    .000000   -.509800    .820903    .521842    .092538
   40  CL  3  Y   -.319633    .000000    .000000    .000000    .000000
   41  CL  3  Z    .000000    .013187   -.072818   -.009576    .028732
   42  CL  3 XX    .000000    .029143   -.129137   -.249215    .175808
   43  CL  3 YY    .000000   -.043465    .074271   -.062165    .093442
   44  CL  3 ZZ    .000000   -.044728    .071586   -.064639    .094124
   45  CL  3 XY    .043625    .000000    .000000    .000000    .000000
   46  CL  3 XZ    .000000    .003685    .027265    .032681   -.005795
   47  CL  3 YZ   -.004015    .000000    .000000    .000000    .000000

                     26         27         28         29         30
                     .7051      .7301      .7307      .7963      .7969
                     A1         B2         A1         B1         A2  
    1  O   1  S   -.020465    .000000   -.001685    .000000    .000000
    2  O   1  S    .061671    .000000    .002142    .000000    .000000
    3  O   1  X    .000000    .000000    .000000   -.037349    .000000
    4  O   1  Y    .000000   -.022012    .000000    .000000    .000000
    5  O   1  Z    .010882    .000000   -.022018    .000000    .000000
    6  O   1  S   -.217354    .000000    .044117    .000000    .000000
    7  O   1  X    .000000    .000000    .000000    .035786    .000000
    8  O   1  Y    .000000   -.185233    .000000    .000000    .000000
    9  O   1  Z    .013154    .000000   -.184727    .000000    .000000
   10  CL  2  S    .020100    .000000    .001568   -.000096    .000000
   11  CL  2  S   -.101144    .000000   -.006993   -.001267    .000000
   12  CL  2  X   -.221563    .000000   -.012797    .008256    .000000
   13  CL  2  Y    .000000    .235229    .000000    .000000    .239170
   14  CL  2  Z   -.014056    .000000    .234519    .239127    .000000
   15  CL  2  S    .502993    .000000    .046611   -.001384    .000000
   16  CL  2  X    .759654    .000000    .041194   -.021801    .000000
   17  CL  2  Y    .000000   -.833790    .000000    .000000   -.856073
   18  CL  2  Z    .050399    .000000   -.831674   -.855289    .000000
   19  CL  2  S   -.625579    .000000   -.068928    .005305    .000000
   20  CL  2  X   -.721749    .000000   -.028750    .023277    .000000
   21  CL  2  Y    .000000    .857187    .000000    .000000    .885896
   22  CL  2  Z   -.059110    .000000    .856182    .885499    .000000
   23  CL  2 XX    .032344    .000000    .014113   -.039120    .000000
   24  CL  2 YY    .081870    .000000   -.004175    .008696    .000000
   25  CL  2 ZZ    .079461    .000000    .011984    .011432    .000000
   26  CL  2 XY    .000000    .072383    .000000    .000000    .077593
   27  CL  2 XZ   -.021902    .000000    .074754    .072203    .000000
   28  CL  2 YZ    .000000    .009211    .000000    .000000    .001782
   29  CL  3  S    .020100    .000000    .001568    .000096    .000000
   30  CL  3  S   -.101144    .000000   -.006993    .001267    .000000
   31  CL  3  X    .221563    .000000    .012797    .008256    .000000
   32  CL  3  Y    .000000    .235229    .000000    .000000   -.239170
   33  CL  3  Z   -.014056    .000000    .234519   -.239127    .000000
   34  CL  3  S    .502993    .000000    .046611    .001384    .000000
   35  CL  3  X   -.759654    .000000   -.041194   -.021801    .000000
   36  CL  3  Y    .000000   -.833790    .000000    .000000    .856073
   37  CL  3  Z    .050399    .000000   -.831674    .855289    .000000
   38  CL  3  S   -.625579    .000000   -.068928   -.005305    .000000
   39  CL  3  X    .721749    .000000    .028750    .023277    .000000
   40  CL  3  Y    .000000    .857187    .000000    .000000   -.885896
   41  CL  3  Z   -.059110    .000000    .856182   -.885499    .000000
   42  CL  3 XX    .032344    .000000    .014113    .039120    .000000
   43  CL  3 YY    .081870    .000000   -.004175   -.008696    .000000
   44  CL  3 ZZ    .079461    .000000    .011984   -.011432    .000000
   45  CL  3 XY    .000000   -.072383    .000000    .000000    .077593
   46  CL  3 XZ    .021902    .000000   -.074754    .072203    .000000
   47  CL  3 YZ    .000000    .009211    .000000    .000000   -.001782

                     31         32         33         34         35
                     .9040     1.0586     1.0604     1.0966     1.0966
                     B1         A2         B1         B2         A1  
    1  O   1  S    .000000    .000000    .000000    .000000    .000161
    2  O   1  S    .000000    .000000    .000000    .000000    .000187
    3  O   1  X   -.344260    .000000   -.066998    .000000    .000000
    4  O   1  Y    .000000    .000000    .000000   -.016749    .000000
    5  O   1  Z    .000000    .000000    .000000    .000000    .016696
    6  O   1  S    .000000    .000000    .000000    .000000   -.003286
    7  O   1  X    .226496    .000000    .095317    .000000    .000000
    8  O   1  Y    .000000    .000000    .000000    .002951    .000000
    9  O   1  Z    .000000    .000000    .000000    .000000   -.002983
   10  CL  2  S    .017088    .000000    .002728    .000000   -.000054
   11  CL  2  S   -.098915    .000000   -.017735    .000000    .000335
   12  CL  2  X    .245661    .000000    .028996    .000000   -.000566
   13  CL  2  Y    .000000   -.029497    .000000   -.000012    .000000
   14  CL  2  Z   -.000922    .000000   -.029997    .000000   -.000023
   15  CL  2  S    .504035    .000000    .089487    .000000   -.001729
   16  CL  2  X   -.851688    .000000   -.096886    .000000    .002008
   17  CL  2  Y    .000000    .106598    .000000    .000009    .000000
   18  CL  2  Z    .008513    .000000    .109266    .000000    .000121
   19  CL  2  S   -.646740    .000000   -.119348    .000000    .002098
   20  CL  2  X   1.003982    .000000    .148301    .000000   -.002892
   21  CL  2  Y    .000000   -.107886    .000000   -.000600    .000000
   22  CL  2  Z   -.010608    .000000   -.107223    .000000    .000383
   23  CL  2 XX   -.063771    .000000   -.155061    .000000   -.007570
   24  CL  2 YY    .047210    .000000    .029783    .000000    .611347
   25  CL  2 ZZ    .038505    .000000    .108395    .000000   -.603614
   26  CL  2 XY    .000000    .701499    .000000   -.088660    .000000
   27  CL  2 XZ   -.103555    .000000    .679496    .000000    .088196
   28  CL  2 YZ    .000000    .044576    .000000    .701442    .000000
   29  CL  3  S   -.017088    .000000   -.002728    .000000   -.000054
   30  CL  3  S    .098915    .000000    .017735    .000000    .000335
   31  CL  3  X    .245661    .000000    .028996    .000000    .000566
   32  CL  3  Y    .000000    .029497    .000000   -.000012    .000000
   33  CL  3  Z    .000922    .000000    .029997    .000000   -.000023
   34  CL  3  S   -.504035    .000000   -.089487    .000000   -.001729
   35  CL  3  X   -.851688    .000000   -.096886    .000000   -.002008
   36  CL  3  Y    .000000   -.106598    .000000    .000009    .000000
   37  CL  3  Z   -.008513    .000000   -.109266    .000000    .000121
   38  CL  3  S    .646740    .000000    .119348    .000000    .002098
   39  CL  3  X   1.003982    .000000    .148301    .000000    .002892
   40  CL  3  Y    .000000    .107886    .000000   -.000600    .000000
   41  CL  3  Z    .010608    .000000    .107223    .000000    .000383
   42  CL  3 XX    .063771    .000000    .155061    .000000   -.007570
   43  CL  3 YY   -.047210    .000000   -.029783    .000000    .611347
   44  CL  3 ZZ   -.038505    .000000   -.108395    .000000   -.603614
   45  CL  3 XY    .000000    .701499    .000000    .088660    .000000
   46  CL  3 XZ   -.103555    .000000    .679496    .000000   -.088196
   47  CL  3 YZ    .000000   -.044576    .000000    .701442    .000000

                     36         37         38         39         40
                    1.0967     1.0967     1.1222     1.1228     1.3213
                     B1         A2         A1         B2         A1  
    1  O   1  S    .000000    .000000    .005582    .000000   -.103359
    2  O   1  S    .000000    .000000    .004359    .000000    .129409
    3  O   1  X   -.000308    .000000    .000000    .000000    .000000
    4  O   1  Y    .000000    .000000    .000000    .389728    .000000
    5  O   1  Z    .000000    .000000    .388267    .000000    .034421
    6  O   1  S    .000000    .000000   -.082363    .000000    .751246
    7  O   1  X   -.001463    .000000    .000000    .000000    .000000
    8  O   1  Y    .000000    .000000    .000000   -.065461    .000000
    9  O   1  Z    .000000    .000000   -.067672    .000000    .047498
   10  CL  2  S    .000060    .000000   -.001067    .000000    .003165
   11  CL  2  S   -.000343    .000000    .006825    .000000   -.008969
   12  CL  2  X    .000642    .000000   -.008592    .000000    .017726
   13  CL  2  Y    .000000    .001261    .000000   -.022350    .000000
   14  CL  2  Z   -.001304    .000000   -.023185    .000000    .003898
   15  CL  2  S    .001530    .000000   -.036410    .000000    .206356
   16  CL  2  X   -.002408    .000000    .029763    .000000   -.100397
   17  CL  2  Y    .000000   -.004523    .000000    .086757    .000000
   18  CL  2  Z    .004682    .000000    .089655    .000000   -.016282
   19  CL  2  S   -.001227    .000000    .045442    .000000   -.429621
   20  CL  2  X    .001994    .000000   -.049642    .000000    .383734
   21  CL  2  Y    .000000    .004614    .000000   -.096318    .000000
   22  CL  2  Z   -.004888    .000000   -.100722    .000000    .032654
   23  CL  2 XX   -.000907    .000000   -.048752    .000000   -.710814
   24  CL  2 YY    .611650    .000000   -.047397    .000000    .390007
   25  CL  2 ZZ   -.610448    .000000    .101597    .000000    .390671
   26  CL  2 XY    .000000   -.044507    .000000    .650899    .000000
   27  CL  2 XZ    .046339    .000000    .648572    .000000   -.060365
   28  CL  2 YZ    .000000    .705699    .000000    .086156    .000000
   29  CL  3  S   -.000060    .000000   -.001067    .000000    .003165
   30  CL  3  S    .000343    .000000    .006825    .000000   -.008969
   31  CL  3  X    .000642    .000000    .008592    .000000   -.017726
   32  CL  3  Y    .000000   -.001261    .000000   -.022350    .000000
   33  CL  3  Z    .001304    .000000   -.023185    .000000    .003898
   34  CL  3  S   -.001530    .000000   -.036410    .000000    .206356
   35  CL  3  X   -.002408    .000000   -.029763    .000000    .100397
   36  CL  3  Y    .000000    .004523    .000000    .086757    .000000
   37  CL  3  Z   -.004682    .000000    .089655    .000000   -.016282
   38  CL  3  S    .001227    .000000    .045442    .000000   -.429621
   39  CL  3  X    .001994    .000000    .049642    .000000   -.383734
   40  CL  3  Y    .000000   -.004614    .000000   -.096318    .000000
   41  CL  3  Z    .004888    .000000   -.100722    .000000    .032654
   42  CL  3 XX    .000907    .000000   -.048752    .000000   -.710814
   43  CL  3 YY   -.611650    .000000   -.047397    .000000    .390007
   44  CL  3 ZZ    .610448    .000000    .101597    .000000    .390671
   45  CL  3 XY    .000000   -.044507    .000000   -.650899    .000000
   46  CL  3 XZ    .046339    .000000   -.648572    .000000    .060365
   47  CL  3 YZ    .000000   -.705699    .000000    .086156    .000000

                     41         42         43         44         45
                    1.5480     1.9561     1.9579     2.7020     3.3115
                     B1         B2         A1         B1         A1  
    1  O   1  S    .000000    .000000   -.005223    .000000    .062404
    2  O   1  S    .000000    .000000    .015636    .000000  -1.726602
    3  O   1  X   -.478364    .000000    .000000  -1.040442    .000000
    4  O   1  Y    .000000   -.974688    .000000    .000000    .000000
    5  O   1  Z    .000000    .000000   -.975541    .000000   -.021815
    6  O   1  S    .000000    .000000    .011886    .000000   2.387949
    7  O   1  X   -.548121    .000000    .000000   2.538711    .000000
    8  O   1  Y    .000000   1.165501    .000000    .000000    .000000
    9  O   1  Z    .000000    .000000   1.167027    .000000    .085966
   10  CL  2  S    .001997    .000000   -.000634   -.014461    .003750
   11  CL  2  S   -.031065    .000000    .003018    .112877   -.050357
   12  CL  2  X    .030931    .000000   -.007323   -.132271   -.028690
   13  CL  2  Y    .000000   -.002738    .000000    .000000    .000000
   14  CL  2  Z    .005541    .000000   -.003137   -.013217   -.000352
   15  CL  2  S   -.117477    .000000   -.015314   -.236026    .379798
   16  CL  2  X   -.071445    .000000    .034157    .635366    .102161
   17  CL  2  Y    .000000    .033552    .000000    .000000    .000000
   18  CL  2  Z   -.016066    .000000    .035585    .057555    .001657
   19  CL  2  S    .563686    .000000   -.007048   -.809666   -.537037
   20  CL  2  X   -.437116    .000000    .017419    .513721    .465104
   21  CL  2  Y    .000000   -.269857    .000000    .000000    .000000
   22  CL  2  Z   -.031887    .000000   -.267597    .075390    .033739
   23  CL  2 XX    .694052    .000000   -.057907   -.488221   -.362562
   24  CL  2 YY   -.415396    .000000   -.002501    .256999    .022529
   25  CL  2 ZZ   -.402441    .000000    .045361    .244320    .022622
   26  CL  2 XY    .000000    .325586    .000000    .000000    .000000
   27  CL  2 XZ    .134243    .000000    .320286   -.120058   -.020533
   28  CL  2 YZ    .000000    .027843    .000000    .000000    .000000
   29  CL  3  S   -.001997    .000000   -.000634    .014461    .003750
   30  CL  3  S    .031065    .000000    .003018   -.112877   -.050357
   31  CL  3  X    .030931    .000000    .007323   -.132271    .028690
   32  CL  3  Y    .000000   -.002738    .000000    .000000    .000000
   33  CL  3  Z   -.005541    .000000   -.003137    .013217   -.000352
   34  CL  3  S    .117477    .000000   -.015314    .236026    .379798
   35  CL  3  X   -.071445    .000000   -.034157    .635366   -.102161
   36  CL  3  Y    .000000    .033552    .000000    .000000    .000000
   37  CL  3  Z    .016066    .000000    .035585   -.057555    .001657
   38  CL  3  S   -.563686    .000000   -.007048    .809666   -.537037
   39  CL  3  X   -.437116    .000000   -.017419    .513721   -.465104
   40  CL  3  Y    .000000   -.269857    .000000    .000000    .000000
   41  CL  3  Z    .031887    .000000   -.267597   -.075390    .033739
   42  CL  3 XX   -.694052    .000000   -.057907    .488221   -.362562
   43  CL  3 YY    .415396    .000000   -.002501   -.256999    .022529
   44  CL  3 ZZ    .402441    .000000    .045361   -.244320    .022622
   45  CL  3 XY    .000000   -.325586    .000000    .000000    .000000
   46  CL  3 XZ    .134243    .000000   -.320286   -.120058    .020533
   47  CL  3 YZ    .000000    .027843    .000000    .000000    .000000

                     46         47
                    4.1820     4.3714
                     A1         B1  
    1  O   1  S   -.018953    .000000
    2  O   1  S    .080702    .000000
    3  O   1  X    .000000   -.076541
    4  O   1  Y    .000000    .000000
    5  O   1  Z    .001977    .000000
    6  O   1  S   -.128871    .000000
    7  O   1  X    .000000    .531377
    8  O   1  Y    .000000    .000000
    9  O   1  Z    .012899    .000000
   10  CL  2  S    .085971    .083769
   11  CL  2  S  -1.100503  -1.104994
   12  CL  2  X    .005691   -.039201
   13  CL  2  Y    .000000    .000000
   14  CL  2  Z   -.000156   -.002816
   15  CL  2  S   3.433292   3.445270
   16  CL  2  X   -.021249    .182167
   17  CL  2  Y    .000000    .000000
   18  CL  2  Z    .001461    .011490
   19  CL  2  S    .531220    .456341
   20  CL  2  X    .003976    .034637
   21  CL  2  Y    .000000    .000000
   22  CL  2  Z   -.008435    .019423
   23  CL  2 XX  -1.600545  -1.785124
   24  CL  2 YY  -1.620103  -1.623800
   25  CL  2 ZZ  -1.619354  -1.626513
   26  CL  2 XY    .000000    .000000
   27  CL  2 XZ    .006683   -.027589
   28  CL  2 YZ    .000000    .000000
   29  CL  3  S    .085971   -.083769
   30  CL  3  S  -1.100503   1.104994
   31  CL  3  X   -.005691   -.039201
   32  CL  3  Y    .000000    .000000
   33  CL  3  Z   -.000156    .002816
   34  CL  3  S   3.433292  -3.445270
   35  CL  3  X    .021249    .182167
   36  CL  3  Y    .000000    .000000
   37  CL  3  Z    .001461   -.011490
   38  CL  3  S    .531220   -.456341
   39  CL  3  X   -.003976    .034637
   40  CL  3  Y    .000000    .000000
   41  CL  3  Z   -.008435   -.019423
   42  CL  3 XX  -1.600545   1.785124
   43  CL  3 YY  -1.620103   1.623800
   44  CL  3 ZZ  -1.619354   1.626513
   45  CL  3 XY    .000000    .000000
   46  CL  3 XZ   -.006683   -.027589
   47  CL  3 YZ    .000000    .000000
 ...... END OF RHF CALCULATION ......
 STEP CPU TIME =     4.55 TOTAL CPU TIME =        5.1 (     .1 MIN)
 TOTAL WALL CLOCK TIME=        5.1 SECONDS, CPU UTILIZATION IS 100.00%

          -----------------
          ENERGY COMPONENTS
          -----------------

         WAVEFUNCTION NORMALIZATION =       1.0000000000

                ONE ELECTRON ENERGY =   -1652.9780498267
                TWO ELECTRON ENERGY =     520.2058021062
           NUCLEAR REPULSION ENERGY =     143.7510427492
                                      ------------------
                       TOTAL ENERGY =    -989.0212049713

 ELECTRON-ELECTRON POTENTIAL ENERGY =     520.2058021062
  NUCLEUS-ELECTRON POTENTIAL ENERGY =   -2635.0653650277
   NUCLEUS-NUCLEUS POTENTIAL ENERGY =     143.7510427492
                                      ------------------
             TOTAL POTENTIAL ENERGY =   -1971.1085201722
               TOTAL KINETIC ENERGY =     982.0873152009
                 VIRIAL RATIO (V/T) =       2.0070603598

  ...... PI ENERGY ANALYSIS ......

 ENERGY ANALYSIS:
            FOCK ENERGY=   -612.5664374648
          BARE H ENERGY=  -1652.9780498267
     ELECTRONIC ENERGY =  -1132.7722436458
         KINETIC ENERGY=    982.0873152009
          N-N REPULSION=    143.7510427492
           TOTAL ENERGY=   -989.0212008966
        SIGMA PART(1+2)=   -987.7648495689
               (K,V1,2)=    885.9917282474  -2284.3929785809    410.6364007645
           PI PART(1+2)=   -145.0073940768
               (K,V1,2)=     96.0955869535   -350.6723864467    109.5694054164
  SIGMA SKELETON, ERROR=   -844.0138068197       .0000000000
             MIXED PART= 0.00000E+00 0.00000E+00 0.00000E+00 0.00000E+00
 ...... END OF PI ENERGY ANALYSIS ......

          ---------------------------------------
          MULLIKEN AND LOWDIN POPULATION ANALYSES
          ---------------------------------------

     MULLIKEN ATOMIC POPULATION IN EACH MOLECULAR ORBITAL

                      1          2          3          4          5

                  2.000000   2.000000   2.000000   2.000000   2.000000

    1             -.000090    .000004   1.996355   -.001045   -.000038
    2             1.000045    .999998    .001823   1.000523   1.000019
    3             1.000045    .999998    .001823   1.000523   1.000019

                      6          7          8          9         10

                  2.000000   2.000000   2.000000   2.000000   2.000000

    1             -.004691   -.000339   -.000007    .000000    .000044
    2             1.002346   1.000169   1.000003   1.000000    .999978
    3             1.002346   1.000169   1.000003   1.000000    .999978

                     11         12         13         14         15

                  2.000000   2.000000   2.000000   2.000000   2.000000

    1              .000044   1.439649    .452415    .307969    .716417
    2              .999978    .280176    .773792    .846016    .641791
    3              .999978    .280176    .773792    .846016    .641791

                     16         17         18         19         20

                  2.000000   2.000000   2.000000   2.000000   2.000000

    1             1.228480   1.215259    .000000    .000631    .719313
    2              .385760    .392370   1.000000    .999684    .640343
    3              .385760    .392370   1.000000    .999684    .640343

                     21

                  2.000000

    1              .724142
    2              .637929
    3              .637929

               ----- POPULATIONS IN EACH AO -----
                             MULLIKEN      LOWDIN
              1  O   1  S     1.98392     1.97606
              2  O   1  S      .38736      .52173
              3  O   1  X      .47594      .46458
              4  O   1  Y      .88380      .91081
              5  O   1  Z      .86934      .89534
              6  O   1  S     1.37698      .92422
              7  O   1  X      .68769      .67333
              8  O   1  Y     1.06887     1.03470
              9  O   1  Z     1.06061     1.02792
             10  CL  2  S     1.99480     1.99713
             11  CL  2  S     1.86767     1.88087
             12  CL  2  X     1.95390     1.92001
             13  CL  2  Y     1.97511     1.95957
             14  CL  2  Z     1.97504     1.95945
             15  CL  2  S     1.23484      .63769
             16  CL  2  X      .51733      .50626
             17  CL  2  Y     1.18288     1.14129
             18  CL  2  Z     1.18108     1.13947
             19  CL  2  S      .76859      .59354
             20  CL  2  X      .13866      .35128
             21  CL  2  Y      .84363      .89669
             22  CL  2  Z      .83985      .89391
             23  CL  2 XX      .04877      .28768
             24  CL  2 YY      .01855      .28113
             25  CL  2 ZZ      .01861      .28084
             26  CL  2 XY      .02190      .02950
             27  CL  2 XZ      .02137      .02914
             28  CL  2 YZ      .00015      .00020
             29  CL  3  S     1.99480     1.99713
             30  CL  3  S     1.86767     1.88087
             31  CL  3  X     1.95390     1.92001
             32  CL  3  Y     1.97511     1.95957
             33  CL  3  Z     1.97504     1.95945
             34  CL  3  S     1.23484      .63769
             35  CL  3  X      .51733      .50626
             36  CL  3  Y     1.18288     1.14129
             37  CL  3  Z     1.18108     1.13947
             38  CL  3  S      .76859      .59354
             39  CL  3  X      .13866      .35128
             40  CL  3  Y      .84363      .89669
             41  CL  3  Z      .83985      .89391
             42  CL  3 XX      .04877      .28768
             43  CL  3 YY      .01855      .28113
             44  CL  3 ZZ      .01861      .28084
             45  CL  3 XY      .02190      .02950
             46  CL  3 XZ      .02137      .02914
             47  CL  3 YZ      .00015      .00020

          ----- MULLIKEN ATOMIC OVERLAP POPULATIONS -----
          (OFF-DIAGONAL ELEMENTS NEED TO BE MULTIPLIED BY 2)

             1           2           3

    1    8.7431683
    2     .0256720  16.5816245
    3     .0256720   -.0045527  16.5816245

          TOTAL MULLIKEN AND LOWDIN ATOMIC POPULATIONS
       ATOM         MULL.POP.    CHARGE          LOW.POP.     CHARGE
    1 O             8.794512    -.794512         8.428694    -.428694
    2 CL1          16.602744     .397256        16.785653     .214347
    3 CL1          16.602744     .397256        16.785653     .214347

          -------------------------------
          BOND ORDER AND VALENCE ANALYSIS     BOND ORDER THRESHOLD= .050
          -------------------------------

                   BOND                       BOND                       BOND
  ATOM PAIR DIST  ORDER      ATOM PAIR DIST  ORDER      ATOM PAIR DIST  ORDER
    1   2  1.535   .733        1   3  1.535   .733        2   3  3.060   .085

                       TOTAL       BONDED        FREE
      ATOM            VALENCE     VALENCE     VALENCE
    1 O                 1.466       1.466        .000
    2 CL1                .818        .818        .000
    3 CL1                .818        .818        .000

          ---------------------
          ELECTROSTATIC MOMENTS
          ---------------------

 POINT   1           X           Y           Z (BOHR)    CHARGE
                  .000000     .000000     .195032         .00 (A.U.)
         DX          DY          DZ         /D/  (DEBYE)
      .000000     .000000     .312766     .312766
 ...... END OF PROPERTY EVALUATION ......
 STEP CPU TIME =      .28 TOTAL CPU TIME =        5.3 (     .1 MIN)
 TOTAL WALL CLOCK TIME=        5.3 SECONDS, CPU UTILIZATION IS 100.00%

 BEGINNING ONE ELECTRON GRADIENT...
 ..... END OF 1-ELECTRON GRADIENT ......
 STEP CPU TIME =      .07 TOTAL CPU TIME =        5.4 (     .1 MIN)
 TOTAL WALL CLOCK TIME=        5.4 SECONDS, CPU UTILIZATION IS 100.00%

          ----------------------
          GRADIENT OF THE ENERGY
          ----------------------

 THE MINIMUM MEMORY REQUIRED FOR THIS RUN IS      74387 WORDS.
 USING     193644 WORDS OF MEMORY.
 SCHWARZ SCREENING SKIPPED        441 BLOCKS, COMPUTED       1507 BLOCKS

 ...... END OF 2-ELECTRON GRADIENT ......
 STEP CPU TIME =     1.07 TOTAL CPU TIME =        6.5 (     .1 MIN)
 TOTAL WALL CLOCK TIME=        6.5 SECONDS, CPU UTILIZATION IS 100.00%

          NSERCH=  0     ENERGY=    -989.0212050

                                 -----------------------
                                 GRADIENT (HARTREE/BOHR)
                                 -----------------------
        ATOM     ZNUC       DE/DX         DE/DY         DE/DZ
 --------------------------------------------------------------
  1  O            8.0      .0000000      .0000000      .0446346
  2  CL1         17.0     -.0807671      .0000000     -.0223173
  3  CL1         17.0      .0807671      .0000000     -.0223173

          MAXIMUM GRADIENT =   .0807671    RMS GRADIENT =  .0422098
          FORCE CONSTANT MATRIX NOT UPDATED --- TAKING FIRST STEP
          MIN SEARCH, CORRECT HESSIAN, TRYING PURE NR STEP
               NR STEP HAS LENGTH         =    .379707
          TRIM/QA LAMBDA FOR NON-TS MODES =   -.08860596
          TRIM/QA STEP HAS LENGTH         =    .300000
          RADIUS OF STEP TAKEN=    .30000  CURRENT TRUST RADIUS=    .30000
1NSERCH=   1

 COORDINATES OF SYMMETRY UNIQUE ATOMS (ANGS)
   ATOM   CHARGE       X              Y              Z
 ------------------------------------------------------------
 O           8.0    .0000000000    .0000000000   -.0559641320
 CL1        17.0  -1.6310536280    .0000000000    .1547920660
 COORDINATES OF ALL ATOMS ARE (ANGS)
   ATOM   CHARGE       X              Y              Z
 ------------------------------------------------------------
 O           8.0    .0000000000    .0000000000   -.0559641320
 CL1        17.0   1.6310536280    .0000000000    .1547920660
 CL1        17.0  -1.6310536280    .0000000000    .1547920660

          INTERNUCLEAR DISTANCES (ANGS.)
          ------------------------------

                    O              CL1            CL1       

  1  O                .0000000      1.6446137 *    1.6446137 *  
  2  CL1             1.6446137 *     .0000000      3.2621073    
  3  CL1             1.6446137 *    3.2621073       .0000000    

  * ... LESS THAN  3.000

 ...... END OF ONE-ELECTRON INTEGRALS ......
 STEP CPU TIME =      .22 TOTAL CPU TIME =        6.7 (     .1 MIN)
 TOTAL WALL CLOCK TIME=        6.7 SECONDS, CPU UTILIZATION IS 100.00%
  ...... END OF TWO-ELECTRON INTEGRALS .....
 STEP CPU TIME =      .18 TOTAL CPU TIME =        6.9 (     .1 MIN)
 TOTAL WALL CLOCK TIME=        6.9 SECONDS, CPU UTILIZATION IS 100.00%

 DIRECT SCF CALCULATION, SCHWRZ=T   FDIFF=T

                                                                              NONZERO    BLOCKS
 ITER EX DEM  TOTAL ENERGY      E CHANGE  DENSITY CHANGE     ORB. GRAD      INTEGRALS   SKIPPED
          ---------------START SECOND ORDER SCF---------------
   1  0  0  -989.025159996  -989.025159996    .038378500    .044305465         104565       539
   2  1  0  -989.038730486     -.013570490    .027399291    .012033444         104276       644
   3  2  0  -989.041316048     -.002585562    .011387845    .008736748         104227       651
   4  3  0  -989.041785766     -.000469719    .014816979    .003180162         103841       672
   5  4  0  -989.042039100     -.000253334    .005230033    .001885255         103946       667
   6  5  0  -989.042089160     -.000050060    .003696890    .001090920         103343       693
   7  6  0  -989.042113367     -.000024207    .000872376    .000477418         103314       696
   8  7  0  -989.042115629     -.000002262    .000317009    .000190227         101435       757
   9  8  0  -989.042116072     -.000000442    .000131250    .000068920         100727       779
  10  9  0  -989.042116119     -.000000047    .000041081    .000024595          99745       808

          -----------------
          DENSITY CONVERGED
          -----------------
     TIME TO FORM FOCK OPERATORS=       3.4 SECONDS (        .3 SEC/ITER)
     FOCK TIME ON FIRST ITERATION=        .3, LAST ITERATION=        .3
     TIME TO SOLVE SCF EQUATIONS=        .3 SECONDS (        .0 SEC/ITER)

 FINAL ENERGY IS     -989.0421161187 AFTER  10 ITERATIONS
 ...... END OF RHF CALCULATION ......
 STEP CPU TIME =     3.88 TOTAL CPU TIME =       10.8 (     .2 MIN)
 TOTAL WALL CLOCK TIME=       10.8 SECONDS, CPU UTILIZATION IS 100.00%
 ..... END OF 1-ELECTRON GRADIENT ......
 STEP CPU TIME =      .10 TOTAL CPU TIME =       10.9 (     .2 MIN)
 TOTAL WALL CLOCK TIME=       10.9 SECONDS, CPU UTILIZATION IS 100.00%

 THE MINIMUM MEMORY REQUIRED FOR THIS RUN IS      74387 WORDS.
 USING     193644 WORDS OF MEMORY.

 ...... END OF 2-ELECTRON GRADIENT ......
 STEP CPU TIME =     1.00 TOTAL CPU TIME =       11.9 (     .2 MIN)
 TOTAL WALL CLOCK TIME=       11.9 SECONDS, CPU UTILIZATION IS 100.00%

          NSERCH=  1     ENERGY=    -989.0421161

                                 -----------------------
                                 GRADIENT (HARTREE/BOHR)
                                 -----------------------
        ATOM     ZNUC       DE/DX         DE/DY         DE/DZ
 --------------------------------------------------------------
  1  O            8.0      .0000000      .0000000      .0561220
  2  CL1         17.0      .0037261      .0000000     -.0280610
  3  CL1         17.0     -.0037261      .0000000     -.0280610

          MAXIMUM GRADIENT =   .0561220    RMS GRADIENT =  .0229790
          HESSIAN UPDATED USING THE BFGS FORMULA
             ACTUAL ENERGY CHANGE WAS   -.0209111474
          PREDICTED ENERGY CHANGE WAS   -.0229816830 RATIO=   .910
          MIN SEARCH, CORRECT HESSIAN, TRYING PURE NR STEP
               NR STEP HAS LENGTH         =    .329103
          RADIUS OF STEP TAKEN=    .32910  CURRENT TRUST RADIUS=    .50000
1NSERCH=   2

 COORDINATES OF SYMMETRY UNIQUE ATOMS (ANGS)
   ATOM   CHARGE       X              Y              Z
 ------------------------------------------------------------
 O           8.0    .0000000000    .0000000000   -.1915042876
 CL1        17.0  -1.6682885076    .0000000000    .2225621438
 COORDINATES OF ALL ATOMS ARE (ANGS)
   ATOM   CHARGE       X              Y              Z
 ------------------------------------------------------------
 O           8.0    .0000000000    .0000000000   -.1915042876
 CL1        17.0   1.6682885076    .0000000000    .2225621438
 CL1        17.0  -1.6682885076    .0000000000    .2225621438

          INTERNUCLEAR DISTANCES (ANGS.)
          ------------------------------

                    O              CL1            CL1       

  1  O                .0000000      1.7189059 *    1.7189059 *  
  2  CL1             1.7189059 *     .0000000      3.3365770    
  3  CL1             1.7189059 *    3.3365770       .0000000    

  * ... LESS THAN  3.000

 ...... END OF ONE-ELECTRON INTEGRALS ......
 STEP CPU TIME =      .33 TOTAL CPU TIME =       12.2 (     .2 MIN)
 TOTAL WALL CLOCK TIME=       12.2 SECONDS, CPU UTILIZATION IS 100.00%
  ...... END OF TWO-ELECTRON INTEGRALS .....
 STEP CPU TIME =      .17 TOTAL CPU TIME =       12.4 (     .2 MIN)
 TOTAL WALL CLOCK TIME=       12.4 SECONDS, CPU UTILIZATION IS 100.00%

 DIRECT SCF CALCULATION, SCHWRZ=T   FDIFF=T

                                                                              NONZERO    BLOCKS
 ITER EX DEM  TOTAL ENERGY      E CHANGE  DENSITY CHANGE     ORB. GRAD      INTEGRALS   SKIPPED
          ---------------START SECOND ORDER SCF---------------
   1  0  0  -989.040353640  -989.040353640    .036690383    .036504718         102875       610
   2  1  0  -989.058110118     -.017756478    .052047359    .014945390         102718       663
   3  2  0  -989.063119167     -.005009049    .013888932    .009192308         102684       667
   4  3  0  -989.063840630     -.000721463    .006935611    .003394555         102267       695
   5  4  0  -989.064030085     -.000189455    .002963382    .001166804         102074       710
   6  5  0  -989.064060237     -.000030152    .002244428    .000624716         101189       742
   7  6  0  -989.064072740     -.000012503    .000989347    .000280471         101044       748
   8  7  0  -989.064074660     -.000001920    .000424482    .000200697         100011       785
   9  8  0  -989.064075095     -.000000436    .000093541    .000060254          99362       803
  10  9  0  -989.064075139     -.000000044    .000023801    .000013578          98731       822

          -----------------
          DENSITY CONVERGED
          -----------------
     TIME TO FORM FOCK OPERATORS=       3.7 SECONDS (        .4 SEC/ITER)
     FOCK TIME ON FIRST ITERATION=        .4, LAST ITERATION=        .3
     TIME TO SOLVE SCF EQUATIONS=        .5 SECONDS (        .0 SEC/ITER)

 FINAL ENERGY IS     -989.0640751395 AFTER  10 ITERATIONS
 ...... END OF RHF CALCULATION ......
 STEP CPU TIME =     4.42 TOTAL CPU TIME =       16.8 (     .3 MIN)
 TOTAL WALL CLOCK TIME=       16.8 SECONDS, CPU UTILIZATION IS 100.00%
 ..... END OF 1-ELECTRON GRADIENT ......
 STEP CPU TIME =      .12 TOTAL CPU TIME =       16.9 (     .3 MIN)
 TOTAL WALL CLOCK TIME=       16.9 SECONDS, CPU UTILIZATION IS 100.00%

 THE MINIMUM MEMORY REQUIRED FOR THIS RUN IS      74387 WORDS.
 USING     193644 WORDS OF MEMORY.

 ...... END OF 2-ELECTRON GRADIENT ......
 STEP CPU TIME =     1.00 TOTAL CPU TIME =       17.9 (     .3 MIN)
 TOTAL WALL CLOCK TIME=       17.9 SECONDS, CPU UTILIZATION IS 100.00%

          NSERCH=  2     ENERGY=    -989.0640751

                                 -----------------------
                                 GRADIENT (HARTREE/BOHR)
                                 -----------------------
        ATOM     ZNUC       DE/DX         DE/DY         DE/DZ
 --------------------------------------------------------------
  1  O            8.0      .0000000      .0000000      .0602648
  2  CL1         17.0      .0295392      .0000000     -.0301324
  3  CL1         17.0     -.0295392      .0000000     -.0301324

          MAXIMUM GRADIENT =   .0602648    RMS GRADIENT =  .0282703
          HESSIAN UPDATED USING THE BFGS FORMULA
             ACTUAL ENERGY CHANGE WAS   -.0219590208
          PREDICTED ENERGY CHANGE WAS   -.0105188788 RATIO=  2.088
          MIN SEARCH, CORRECT HESSIAN, TRYING PURE NR STEP
               NR STEP HAS LENGTH         =   7.125759
          TRIM/QA LAMBDA FOR NON-TS MODES =   -.18426355
          TRIM/QA STEP HAS LENGTH         =    .329103
          RADIUS OF STEP TAKEN=    .32910  CURRENT TRUST RADIUS=    .32910
1NSERCH=   3

 COORDINATES OF SYMMETRY UNIQUE ATOMS (ANGS)
   ATOM   CHARGE       X              Y              Z
 ------------------------------------------------------------
 O           8.0    .0000000000    .0000000000   -.3330511667
 CL1        17.0  -1.6800421179    .0000000000    .2933355833
 COORDINATES OF ALL ATOMS ARE (ANGS)
   ATOM   CHARGE       X              Y              Z
 ------------------------------------------------------------
 O           8.0    .0000000000    .0000000000   -.3330511667
 CL1        17.0   1.6800421179    .0000000000    .2933355833
 CL1        17.0  -1.6800421179    .0000000000    .2933355833

          INTERNUCLEAR DISTANCES (ANGS.)
          ------------------------------

                    O              CL1            CL1       

  1  O                .0000000      1.7930147 *    1.7930147 *  
  2  CL1             1.7930147 *     .0000000      3.3600842    
  3  CL1             1.7930147 *    3.3600842       .0000000    

  * ... LESS THAN  3.000

 ...... END OF ONE-ELECTRON INTEGRALS ......
 STEP CPU TIME =      .25 TOTAL CPU TIME =       18.1 (     .3 MIN)
 TOTAL WALL CLOCK TIME=       18.1 SECONDS, CPU UTILIZATION IS 100.00%
  ...... END OF TWO-ELECTRON INTEGRALS .....
 STEP CPU TIME =      .20 TOTAL CPU TIME =       18.4 (     .3 MIN)
 TOTAL WALL CLOCK TIME=       18.4 SECONDS, CPU UTILIZATION IS 100.00%

 DIRECT SCF CALCULATION, SCHWRZ=T   FDIFF=T

                                                                              NONZERO    BLOCKS
 ITER EX DEM  TOTAL ENERGY      E CHANGE  DENSITY CHANGE     ORB. GRAD      INTEGRALS   SKIPPED
          ---------------START SECOND ORDER SCF---------------
   1  0  0  -989.063560489  -989.063560489    .039507587    .033495807         101773       623
   2  1  0  -989.076056679     -.012496190    .029323433    .012925882         101541       690
   3  2  0  -989.079255430     -.003198751    .009049397    .008043877         101468       696
   4  3  0  -989.079856016     -.000600586    .005240646    .002580418         100695       737
   5  4  0  -989.079977264     -.000121247    .001682022    .001110333         100351       749
   6  5  0  -989.079988147     -.000010883    .000517931    .000281063          99350       789
   7  6  0  -989.079989820     -.000001673    .000156219    .000086834          98789       809
   8  7  0  -989.079989968     -.000000148    .000097403    .000038598          97702       827

          -----------------
          DENSITY CONVERGED
          -----------------
     TIME TO FORM FOCK OPERATORS=       2.9 SECONDS (        .4 SEC/ITER)
     FOCK TIME ON FIRST ITERATION=        .3, LAST ITERATION=        .3
     TIME TO SOLVE SCF EQUATIONS=        .4 SECONDS (        .0 SEC/ITER)

 FINAL ENERGY IS     -989.0799899682 AFTER   8 ITERATIONS
 ...... END OF RHF CALCULATION ......
 STEP CPU TIME =     3.63 TOTAL CPU TIME =       22.0 (     .4 MIN)
 TOTAL WALL CLOCK TIME=       22.0 SECONDS, CPU UTILIZATION IS 100.00%
 ..... END OF 1-ELECTRON GRADIENT ......
 STEP CPU TIME =      .12 TOTAL CPU TIME =       22.1 (     .4 MIN)
 TOTAL WALL CLOCK TIME=       22.1 SECONDS, CPU UTILIZATION IS 100.00%

 THE MINIMUM MEMORY REQUIRED FOR THIS RUN IS      74387 WORDS.
 USING     193644 WORDS OF MEMORY.

 ...... END OF 2-ELECTRON GRADIENT ......
 STEP CPU TIME =      .93 TOTAL CPU TIME =       23.0 (     .4 MIN)
 TOTAL WALL CLOCK TIME=       23.0 SECONDS, CPU UTILIZATION IS 100.00%

          NSERCH=  3     ENERGY=    -989.0799900

                                 -----------------------
                                 GRADIENT (HARTREE/BOHR)
                                 -----------------------
        ATOM     ZNUC       DE/DX         DE/DY         DE/DZ
 --------------------------------------------------------------
  1  O            8.0      .0000000      .0000000      .0235773
  2  CL1         17.0      .0512017      .0000000     -.0117887
  3  CL1         17.0     -.0512017      .0000000     -.0117887

          MAXIMUM GRADIENT =   .0512017    RMS GRADIENT =  .0259852
          HESSIAN UPDATED USING THE BFGS FORMULA
             ACTUAL ENERGY CHANGE WAS   -.0159148287
          PREDICTED ENERGY CHANGE WAS   -.0214125286 RATIO=   .743
          MIN SEARCH, CORRECT HESSIAN, TRYING PURE NR STEP
               NR STEP HAS LENGTH         =    .342042
          TRIM/QA LAMBDA FOR NON-TS MODES =   -.00569229
          TRIM/QA STEP HAS LENGTH         =    .329103
          RADIUS OF STEP TAKEN=    .32910  CURRENT TRUST RADIUS=    .32910
1NSERCH=   4

 COORDINATES OF SYMMETRY UNIQUE ATOMS (ANGS)
   ATOM   CHARGE       X              Y              Z
 ------------------------------------------------------------
 O           8.0    .0000000000    .0000000000   -.4513469149
 CL1        17.0  -1.6117093033    .0000000000    .3524834574
 COORDINATES OF ALL ATOMS ARE (ANGS)
   ATOM   CHARGE       X              Y              Z
 ------------------------------------------------------------
 O           8.0    .0000000000    .0000000000   -.4513469149
 CL1        17.0   1.6117093033    .0000000000    .3524834574
 CL1        17.0  -1.6117093033    .0000000000    .3524834574

          INTERNUCLEAR DISTANCES (ANGS.)
          ------------------------------

                    O              CL1            CL1       

  1  O                .0000000      1.8010414 *    1.8010414 *  
  2  CL1             1.8010414 *     .0000000      3.2234186    
  3  CL1             1.8010414 *    3.2234186       .0000000    

  * ... LESS THAN  3.000

 ...... END OF ONE-ELECTRON INTEGRALS ......
 STEP CPU TIME =      .08 TOTAL CPU TIME =       23.1 (     .4 MIN)
 TOTAL WALL CLOCK TIME=       23.1 SECONDS, CPU UTILIZATION IS 100.00%
  ...... END OF TWO-ELECTRON INTEGRALS .....
 STEP CPU TIME =      .22 TOTAL CPU TIME =       23.3 (     .4 MIN)
 TOTAL WALL CLOCK TIME=       23.3 SECONDS, CPU UTILIZATION IS 100.00%

 DIRECT SCF CALCULATION, SCHWRZ=T   FDIFF=T

                                                                              NONZERO    BLOCKS
 ITER EX DEM  TOTAL ENERGY      E CHANGE  DENSITY CHANGE     ORB. GRAD      INTEGRALS   SKIPPED
          ---------------START SECOND ORDER SCF---------------
   1  0  0  -989.086980153  -989.086980153    .020217958    .020156273         104079       549
   2  1  0  -989.093522401     -.006542247    .021276703    .010316025         103635       664
   3  2  0  -989.095715325     -.002192925    .010984404    .005385130         103519       674
   4  3  0  -989.096047704     -.000332378    .003089477    .003227819         102782       718
   5  4  0  -989.096131477     -.000083773    .001395035    .000729275         102110       739
   6  5  0  -989.096139083     -.000007606    .000473389    .000195809         101066       768
   7  6  0  -989.096139857     -.000000774    .000294365    .000127635         100324       794
   8  7  0  -989.096140068     -.000000211    .000060607    .000040252          99604       809

          -----------------
          DENSITY CONVERGED
          -----------------
     TIME TO FORM FOCK OPERATORS=       2.7 SECONDS (        .3 SEC/ITER)
     FOCK TIME ON FIRST ITERATION=        .4, LAST ITERATION=        .3
     TIME TO SOLVE SCF EQUATIONS=        .3 SECONDS (        .0 SEC/ITER)

 FINAL ENERGY IS     -989.0961400678 AFTER   8 ITERATIONS
 ...... END OF RHF CALCULATION ......
 STEP CPU TIME =     3.17 TOTAL CPU TIME =       26.5 (     .4 MIN)
 TOTAL WALL CLOCK TIME=       26.5 SECONDS, CPU UTILIZATION IS 100.00%
 ..... END OF 1-ELECTRON GRADIENT ......
 STEP CPU TIME =      .07 TOTAL CPU TIME =       26.6 (     .4 MIN)
 TOTAL WALL CLOCK TIME=       26.6 SECONDS, CPU UTILIZATION IS 100.00%

 THE MINIMUM MEMORY REQUIRED FOR THIS RUN IS      74387 WORDS.
 USING     193644 WORDS OF MEMORY.

 ...... END OF 2-ELECTRON GRADIENT ......
 STEP CPU TIME =      .97 TOTAL CPU TIME =       27.5 (     .5 MIN)
 TOTAL WALL CLOCK TIME=       27.5 SECONDS, CPU UTILIZATION IS 100.00%

          NSERCH=  4     ENERGY=    -989.0961401

                                 -----------------------
                                 GRADIENT (HARTREE/BOHR)
                                 -----------------------
        ATOM     ZNUC       DE/DX         DE/DY         DE/DZ
 --------------------------------------------------------------
  1  O            8.0      .0000000      .0000000     -.0064981
  2  CL1         17.0      .0500299      .0000000      .0032491
  3  CL1         17.0     -.0500299      .0000000      .0032491

          MAXIMUM GRADIENT =   .0500299    RMS GRADIENT =  .0237331
          HESSIAN UPDATED USING THE BFGS FORMULA
             ACTUAL ENERGY CHANGE WAS   -.0161500997
          PREDICTED ENERGY CHANGE WAS   -.0108729201 RATIO=  1.485
          MIN SEARCH, CORRECT HESSIAN, TRYING PURE NR STEP
               NR STEP HAS LENGTH         =    .567160
          TRIM/QA LAMBDA FOR NON-TS MODES =   -.06681224
          TRIM/QA STEP HAS LENGTH         =    .329103
          RADIUS OF STEP TAKEN=    .32910  CURRENT TRUST RADIUS=    .32910
1NSERCH=   5

 COORDINATES OF SYMMETRY UNIQUE ATOMS (ANGS)
   ATOM   CHARGE       X              Y              Z
 ------------------------------------------------------------
 O           8.0    .0000000000    .0000000000   -.5021515162
 CL1        17.0  -1.4966921049    .0000000000    .3778857581
 COORDINATES OF ALL ATOMS ARE (ANGS)
   ATOM   CHARGE       X              Y              Z
 ------------------------------------------------------------
 O           8.0    .0000000000    .0000000000   -.5021515162
 CL1        17.0   1.4966921049    .0000000000    .3778857581
 CL1        17.0  -1.4966921049    .0000000000    .3778857581

          INTERNUCLEAR DISTANCES (ANGS.)
          ------------------------------

                    O              CL1            CL1       

  1  O                .0000000      1.7362468 *    1.7362468 *  
  2  CL1             1.7362468 *     .0000000      2.9933842 *  
  3  CL1             1.7362468 *    2.9933842 *     .0000000    

  * ... LESS THAN  3.000

 ...... END OF ONE-ELECTRON INTEGRALS ......
 STEP CPU TIME =      .08 TOTAL CPU TIME =       27.6 (     .5 MIN)
 TOTAL WALL CLOCK TIME=       27.6 SECONDS, CPU UTILIZATION IS 100.00%
  ...... END OF TWO-ELECTRON INTEGRALS .....
 STEP CPU TIME =      .20 TOTAL CPU TIME =       27.8 (     .5 MIN)
 TOTAL WALL CLOCK TIME=       27.8 SECONDS, CPU UTILIZATION IS 100.00%

 DIRECT SCF CALCULATION, SCHWRZ=T   FDIFF=T

                                                                              NONZERO    BLOCKS
 ITER EX DEM  TOTAL ENERGY      E CHANGE  DENSITY CHANGE     ORB. GRAD      INTEGRALS   SKIPPED
          ---------------START SECOND ORDER SCF---------------
   1  0  0  -989.104986313  -989.104986313    .017977802    .019122997         109060       483
   2  1  0  -989.109914805     -.004928493    .023048026    .009077144         108564       580
   3  2  0  -989.111245291     -.001330486    .011605998    .006659514         108489       586
   4  3  0  -989.111568004     -.000322713    .003939775    .001848995         107622       635
   5  4  0  -989.111608871     -.000040867    .000628394    .000535494         106688       669
   6  5  0  -989.111611332     -.000002461    .000252858    .000150660         105098       723
   7  6  0  -989.111611584     -.000000252    .000127165    .000065883         103076       768
   8  7  0  -989.111611628     -.000000045    .000031951    .000017149         101427       795

          -----------------
          DENSITY CONVERGED
          -----------------
     TIME TO FORM FOCK OPERATORS=       2.8 SECONDS (        .3 SEC/ITER)
     FOCK TIME ON FIRST ITERATION=        .4, LAST ITERATION=        .3
     TIME TO SOLVE SCF EQUATIONS=        .2 SECONDS (        .0 SEC/ITER)

 FINAL ENERGY IS     -989.1116116283 AFTER   8 ITERATIONS
 ...... END OF RHF CALCULATION ......
 STEP CPU TIME =     3.23 TOTAL CPU TIME =       31.1 (     .5 MIN)
 TOTAL WALL CLOCK TIME=       31.1 SECONDS, CPU UTILIZATION IS 100.00%
 ..... END OF 1-ELECTRON GRADIENT ......
 STEP CPU TIME =      .10 TOTAL CPU TIME =       31.1 (     .5 MIN)
 TOTAL WALL CLOCK TIME=       31.1 SECONDS, CPU UTILIZATION IS 100.00%

 THE MINIMUM MEMORY REQUIRED FOR THIS RUN IS      74387 WORDS.
 USING     193644 WORDS OF MEMORY.

 ...... END OF 2-ELECTRON GRADIENT ......
 STEP CPU TIME =     1.05 TOTAL CPU TIME =       32.2 (     .5 MIN)
 TOTAL WALL CLOCK TIME=       32.2 SECONDS, CPU UTILIZATION IS 100.00%

          NSERCH=  5     ENERGY=    -989.1116116

                                 -----------------------
                                 GRADIENT (HARTREE/BOHR)
                                 -----------------------
        ATOM     ZNUC       DE/DX         DE/DY         DE/DZ
 --------------------------------------------------------------
  1  O            8.0      .0000000      .0000000     -.0027548
  2  CL1         17.0      .0227902      .0000000      .0013774
  3  CL1         17.0     -.0227902      .0000000      .0013774

          MAXIMUM GRADIENT =   .0227902    RMS GRADIENT =  .0108021
          HESSIAN UPDATED USING THE BFGS FORMULA
             ACTUAL ENERGY CHANGE WAS   -.0154715605
          PREDICTED ENERGY CHANGE WAS   -.0140243299 RATIO=  1.103
          MIN SEARCH, CORRECT HESSIAN, TRYING PURE NR STEP
               NR STEP HAS LENGTH         =    .278075
          RADIUS OF STEP TAKEN=    .27808  CURRENT TRUST RADIUS=    .46542
1NSERCH=   6

 COORDINATES OF SYMMETRY UNIQUE ATOMS (ANGS)
   ATOM   CHARGE       X              Y              Z
[...]
   33  CL  3  Z    .000000    .067034    .082778    .036466    .019605
   34  CL  3  S    .000000    .080746    .138880   -.964996    .937618
   35  CL  3  X    .000000    .296709    .222325   -.157259   -.366560
   36  CL  3  Y   -.398616    .000000    .000000    .000000    .000000
   37  CL  3  Z    .000000   -.139956   -.179669   -.109765   -.082056
   38  CL  3  S    .000000    .139141    .206931   1.248015  -1.279880
   39  CL  3  X    .000000    .418427    .467649    .186108    .203176
   40  CL  3  Y   -.310844    .000000    .000000    .000000    .000000
   41  CL  3  Z    .000000   -.237083   -.326548    .000247    .169779
   42  CL  3 XX    .000000   -.043634   -.013860   -.127318    .184577
   43  CL  3 YY    .000000    .031204    .054600   -.106135    .064401
   44  CL  3 ZZ    .000000    .029790   -.011266   -.152148    .122364
   45  CL  3 XY    .016029    .000000    .000000    .000000    .000000
   46  CL  3 XZ    .000000    .038357    .075479    .095929   -.073197
   47  CL  3 YZ   -.014124    .000000    .000000    .000000    .000000

                     26         27         28         29         30
                     .7314      .7412      .7443      .7508      .7996
                     B2         B1         A1         A1         A2  
    1  O   1  S    .000000    .000000   -.001856    .013992    .000000
    2  O   1  S    .000000    .000000    .084134    .002957    .000000
    3  O   1  X    .000000   -.162142    .000000    .000000    .000000
    4  O   1  Y    .062908    .000000    .000000    .000000    .000000
    5  O   1  Z    .000000    .000000    .125861    .082768    .000000
    6  O   1  S    .000000    .000000   -.453821   -.245716    .000000
    7  O   1  X    .000000    .223419    .000000    .000000    .000000
    8  O   1  Y    .152056    .000000    .000000    .000000    .000000
    9  O   1  Z    .000000    .000000   -.060747    .072489    .000000
   10  CL  2  S    .000000    .003808    .006949   -.006766    .000000
   11  CL  2  S    .000000   -.011529   -.034140    .030873    .000000
   12  CL  2  X    .000000    .131100   -.226486    .084955    .000000
   13  CL  2  Y   -.239094    .000000    .000000    .000000    .239001
   14  CL  2  Z    .000000    .194722   -.086668   -.220728    .000000
   15  CL  2  S    .000000    .183678    .168743   -.204328    .000000
   16  CL  2  X    .000000   -.478138    .784366   -.290724    .000000
   17  CL  2  Y    .841799    .000000    .000000    .000000   -.856980
   18  CL  2  Z    .000000   -.686968    .309432    .781343    .000000
   19  CL  2  S    .000000   -.390339   -.219261    .308517    .000000
   20  CL  2  X    .000000    .661321   -.751992    .230931    .000000
   21  CL  2  Y   -.829074    .000000    .000000    .000000    .897634
   22  CL  2  Z    .000000    .745612   -.362717   -.787175    .000000
   23  CL  2 XX    .000000    .170983    .050462   -.043746    .000000
   24  CL  2 YY    .000000   -.058106    .056436    .016885    .000000
   25  CL  2 ZZ    .000000   -.033784   -.027832   -.058409    .000000
   26  CL  2 XY   -.006669    .000000    .000000    .000000    .096247
   27  CL  2 XZ    .000000    .078169   -.115361   -.023650    .000000
   28  CL  2 YZ   -.043157    .000000    .000000    .000000    .006354
   29  CL  3  S    .000000   -.003808    .006949   -.006766    .000000
   30  CL  3  S    .000000    .011529   -.034140    .030873    .000000
   31  CL  3  X    .000000    .131100    .226486   -.084955    .000000
   32  CL  3  Y   -.239094    .000000    .000000    .000000   -.239001
   33  CL  3  Z    .000000   -.194722   -.086668   -.220728    .000000
   34  CL  3  S    .000000   -.183678    .168743   -.204328    .000000
   35  CL  3  X    .000000   -.478138   -.784366    .290724    .000000
   36  CL  3  Y    .841799    .000000    .000000    .000000    .856980
   37  CL  3  Z    .000000    .686968    .309432    .781343    .000000
   38  CL  3  S    .000000    .390339   -.219261    .308517    .000000
   39  CL  3  X    .000000    .661321    .751992   -.230931    .000000
   40  CL  3  Y   -.829074    .000000    .000000    .000000   -.897634
   41  CL  3  Z    .000000   -.745612   -.362717   -.787175    .000000
   42  CL  3 XX    .000000   -.170983    .050462   -.043746    .000000
   43  CL  3 YY    .000000    .058106    .056436    .016885    .000000
   44  CL  3 ZZ    .000000    .033784   -.027832   -.058409    .000000
   45  CL  3 XY    .006669    .000000    .000000    .000000    .096247
   46  CL  3 XZ    .000000    .078169    .115361    .023650    .000000
   47  CL  3 YZ   -.043157    .000000    .000000    .000000   -.006354

                     31
                     .8231
                     B1  
    1  O   1  S    .000000
    2  O   1  S    .000000
    3  O   1  X    .018281
    4  O   1  Y    .000000
    5  O   1  Z    .000000
    6  O   1  S    .000000
    7  O   1  X   -.051494
    8  O   1  Y    .000000
    9  O   1  Z    .000000
   10  CL  2  S   -.012143
   11  CL  2  S    .051524
   12  CL  2  X   -.141016
   13  CL  2  Y    .000000
   14  CL  2  Z    .137906
   15  CL  2  S   -.403440
   16  CL  2  X    .540364
   17  CL  2  Y    .000000
   18  CL  2  Z   -.495549
   19  CL  2  S    .672556
   20  CL  2  X   -.766397
   21  CL  2  Y    .000000
   22  CL  2  Z    .508498
   23  CL  2 XX   -.362719
   24  CL  2 YY    .089637
   25  CL  2 ZZ    .090088
   26  CL  2 XY    .000000
   27  CL  2 XZ    .033646
   28  CL  2 YZ    .000000
   29  CL  3  S    .012143
   30  CL  3  S   -.051524
   31  CL  3  X   -.141016
   32  CL  3  Y    .000000
   33  CL  3  Z   -.137906
   34  CL  3  S    .403440
   35  CL  3  X    .540364
   36  CL  3  Y    .000000
   37  CL  3  Z    .495549
   38  CL  3  S   -.672556
   39  CL  3  X   -.766397
   40  CL  3  Y    .000000
   41  CL  3  Z   -.508498
   42  CL  3 XX    .362719
   43  CL  3 YY   -.089637
   44  CL  3 ZZ   -.090088
   45  CL  3 XY    .000000
   46  CL  3 XZ    .033646
   47  CL  3 YZ    .000000

          -----------------
          ENERGY COMPONENTS
          -----------------

         WAVEFUNCTION NORMALIZATION =       1.0000000000

                ONE ELECTRON ENERGY =   -1642.2805557025
                TWO ELECTRON ENERGY =     514.8495278407
           NUCLEAR REPULSION ENERGY =     138.3162221591
                                      ------------------
                       TOTAL ENERGY =    -989.1148057027

 ELECTRON-ELECTRON POTENTIAL ENERGY =     514.8495278407
  NUCLEUS-ELECTRON POTENTIAL ENERGY =   -2624.0714943289
   NUCLEUS-NUCLEUS POTENTIAL ENERGY =     138.3162221591
                                      ------------------
             TOTAL POTENTIAL ENERGY =   -1970.9057443291
               TOTAL KINETIC ENERGY =     981.7909386265
                 VIRIAL RATIO (V/T) =       2.0074597012

  ...... PI ENERGY ANALYSIS ......

 ENERGY ANALYSIS:
            FOCK ENERGY=   -612.5815097519
          BARE H ENERGY=  -1642.2805557025
     ELECTRONIC ENERGY =  -1127.4310327272
         KINETIC ENERGY=    981.7909386265
          N-N REPULSION=    138.3162221591
           TOTAL ENERGY=   -989.1148105681
        SIGMA PART(1+2)=   -983.4321144946
               (K,V1,2)=    885.6944121021  -2275.4672313502    406.3407047535
           PI PART(1+2)=   -143.9989182326
               (K,V1,2)=     96.0965265243   -348.6042629787    108.5088182218
  SIGMA SKELETON, ERROR=   -845.1158923355       .0000000000
             MIXED PART= 0.00000E+00 0.00000E+00 0.00000E+00 0.00000E+00
 ...... END OF PI ENERGY ANALYSIS ......

          ---------------------------------------
          MULLIKEN AND LOWDIN POPULATION ANALYSES
          ---------------------------------------

     MULLIKEN ATOMIC POPULATION IN EACH MOLECULAR ORBITAL

                      1          2          3          4          5

                  2.000000   2.000000   2.000000   2.000000   2.000000

    1              .000002   -.000007   1.997732   -.000016   -.000084
    2              .999999   1.000004    .001134   1.000008   1.000042
    3              .999999   1.000004    .001134   1.000008   1.000042

                      6          7          8          9         10

                  2.000000   2.000000   2.000000   2.000000   2.000000

    1             -.000565   -.000570   -.000024    .000013    .000000
    2             1.000283   1.000285   1.000012    .999993   1.000000
    3             1.000283   1.000285   1.000012    .999993   1.000000

                     11         12         13         14         15

                  2.000000   2.000000   2.000000   2.000000   2.000000

    1              .000035   1.537934    .203887    .416811   1.383762
    2              .999982    .231033    .898056    .791595    .308119
    3              .999982    .231033    .898056    .791595    .308119

                     16         17         18         19         20

                  2.000000   2.000000   2.000000   2.000000   2.000000

    1              .857401   1.012139    .000000    .433182    .023463
    2              .571300    .493930   1.000000    .783409    .988269
    3              .571300    .493930   1.000000    .783409    .988269

                     21

                  2.000000

    1              .594113
    2              .702944
    3              .702944

               ----- POPULATIONS IN EACH AO -----
                             MULLIKEN      LOWDIN
              1  O   1  S     1.98684     1.98209
              2  O   1  S      .44786      .61950
              3  O   1  X      .43275      .41786
              4  O   1  Y      .93571      .95129
              5  O   1  Z      .59753      .59663
              6  O   1  S     1.52236     1.11820
              7  O   1  X      .65140      .66936
              8  O   1  Y     1.04220     1.02474
              9  O   1  Z      .84256      .84577
             10  CL  2  S     1.99480     1.99715
             11  CL  2  S     1.86772     1.88106
             12  CL  2  X     1.96144     1.93348
             13  CL  2  Y     1.97454     1.95872
             14  CL  2  Z     1.96976     1.94918
             15  CL  2  S     1.23394      .64357
             16  CL  2  X      .74451      .72664
             17  CL  2  Y     1.16601     1.12843
             18  CL  2  Z     1.00886      .97424
             19  CL  2  S      .80298      .60607
             20  CL  2  X      .42199      .54720
             21  CL  2  Y      .86200      .91386
             22  CL  2  Z      .67957      .76701
             23  CL  2 XX      .02694      .27321
             24  CL  2 YY      .01499      .28035
             25  CL  2 ZZ      .01478      .27138
             26  CL  2 XY      .00582      .00748
             27  CL  2 XZ      .01706      .02475
             28  CL  2 YZ      .00268      .00348
             29  CL  3  S     1.99480     1.99715
             30  CL  3  S     1.86772     1.88106
             31  CL  3  X     1.96144     1.93348
             32  CL  3  Y     1.97454     1.95872
             33  CL  3  Z     1.96976     1.94918
             34  CL  3  S     1.23394      .64357
             35  CL  3  X      .74451      .72664
             36  CL  3  Y     1.16601     1.12843
             37  CL  3  Z     1.00886      .97424
             38  CL  3  S      .80298      .60607
             39  CL  3  X      .42199      .54720
             40  CL  3  Y      .86200      .91386
             41  CL  3  Z      .67957      .76701
             42  CL  3 XX      .02694      .27321
             43  CL  3 YY      .01499      .28035
             44  CL  3 ZZ      .01478      .27138
             45  CL  3 XY      .00582      .00748
             46  CL  3 XZ      .01706      .02475
             47  CL  3 YZ      .00268      .00348

          ----- MULLIKEN ATOMIC OVERLAP POPULATIONS -----
          (OFF-DIAGONAL ELEMENTS NEED TO BE MULTIPLIED BY 2)

             1           2           3

    1    8.2476121
    2     .1057976  16.7253710
    3     .1057976   -.0607723  16.7253710

          TOTAL MULLIKEN AND LOWDIN ATOMIC POPULATIONS
       ATOM         MULL.POP.    CHARGE          LOW.POP.     CHARGE
    1 O             8.459207    -.459207         8.225447    -.225447
    2 CL1          16.770396     .229604        16.887277     .112723
    3 CL1          16.770396     .229604        16.887277     .112723

          -------------------------------
          BOND ORDER AND VALENCE ANALYSIS     BOND ORDER THRESHOLD= .050
          -------------------------------

                   BOND                       BOND                       BOND
  ATOM PAIR DIST  ORDER      ATOM PAIR DIST  ORDER      ATOM PAIR DIST  ORDER
    1   2  1.703   .894        1   3  1.703   .894

                       TOTAL       BONDED        FREE
      ATOM            VALENCE     VALENCE     VALENCE
    1 O                 1.788       1.788        .000
    2 CL1                .929        .929        .000
    3 CL1                .929        .929        .000

          ---------------------
          ELECTROSTATIC MOMENTS
          ---------------------

 POINT   1           X           Y           Z (BOHR)    CHARGE
                  .000000     .000000     .420631         .00 (A.U.)
         DX          DY          DZ         /D/  (DEBYE)
      .000000     .000000    1.131565    1.131565
 ...... END OF PROPERTY EVALUATION ......
 STEP CPU TIME =      .60 TOTAL CPU TIME =       51.8 (     .9 MIN)
 TOTAL WALL CLOCK TIME=       51.8 SECONDS, CPU UTILIZATION IS 100.00%
  $VIB   
          IVIB=   0 IATOM=   0 ICOORD=   0 E=     -989.1148057027
  0.000000000E+00 0.000000000E+00-3.046265382E-05-2.161271857E-05 0.000000000E+00
  1.523134152E-05 2.161271857E-05 0.000000000E+00 1.523134152E-05
 -2.347843377E-13 1.320828432E-17 1.131564958E+00
 ......END OF GEOMETRY SEARCH......
 STEP CPU TIME =      .03 TOTAL CPU TIME =       51.8 (     .9 MIN)
 TOTAL WALL CLOCK TIME=       51.8 SECONDS, CPU UTILIZATION IS 100.00%
 193680 WORDS OF DYNAMIC MEMORY USED
 EXECUTION OF GAMESS TERMINATED NORMALLY 17:00:45 02-03-2000     
             DICTNRY length        375 KB
6774   1.383772
    2              .999982    .231024    .898076    .791613    .308114
    3              .999982    .231024    .898076    .791613    .308114

                     16         17         18         19         20

                  2.000000   2.000000   2.000000   2.000000   2.000000

    1              .857413   1.012130    .000000    .433190    .023465
    2              .571294    .493935   1.000000    .783405    .988267
    3              .571294    .493935   1.000000    .783405    .988267

                     21

                  2.000000

    1              .594106
    2              .702947
    3              .702947

               ----- POPULATIONS IN EACH AO -----
                             MULLIKEN      LOWDIN
              1  O   1  S     1.98684     1.98209
              2  O   1  S      .44787      .61950
              3  O   1  X      .43272      .41784
              4  O   1  Y      .93571      .95129
              5  O   1  Z      .59752      .59662
              6  O   1  S     1.52235     1.11822
              7  O   1  X      .65140      .66936
              8  O   1  Y     1.04220     1.02474
              9  O   1  Z      .84255      .84576
             10  CL  2  S     1.99480     1.99715
             11  CL  2  S     1.86772     1.88106
             12  CL  2  X     1.96144     1.93348
             13  CL  2  Y     1.97454     1.95872
             14  CL  2  Z     1.96976     1.94918
             15  CL  2  S     1.23394      .64357
             16  CL  2  X      .74445      .72658
             17  CL  2  Y     1.16601     1.12843
             18  CL  2  Z     1.00891      .97428
             19  CL  2  S      .80298      .60607
             20  CL  2  X      .42197      .54718
             21  CL  2  Y      .86200      .91387
             22  CL  2  Z      .67963      .76706
             23  CL  2 XX      .02694      .27321
             24  CL  2 YY      .01499      .28035
             25  CL  2 ZZ      .01477      .27138
             26  CL  2 XY      .00582      .00748
             27  CL  2 XZ      .01705      .02474
             28  CL  2 YZ      .00268      .00348
             29  CL  3  S     1.99480     1.99715
             30  CL  3  S     1.86772     1.88106
             31  CL  3  X     1.96144     1.93348
             32  CL  3  Y     1.97454     1.95872
             33  CL  3  Z     1.96976     1.94918
             34  CL  3  S     1.23394      .64357
             35  CL  3  X      .74445      .72658
             36  CL  3  Y     1.16601     1.12843
             37  CL  3  Z     1.00891      .97428
             38  CL  3  S      .80298      .60607
             39  CL  3  X      .42197      .54718
             40  CL  3  Y      .86200      .91387
             41  CL  3  Z      .67963      .76706
             42  CL  3 XX      .02694      .27321
             43  CL  3 YY      .01499      .28035
             44  CL  3 ZZ      .01477      .27138
             45  CL  3 XY      .00582      .00748
             46  CL  3 XZ      .01705      .02474
             47  CL  3 YZ      .00268      .00348

          ----- MULLIKEN ATOMIC OVERLAP POPULATIONS -----
          (OFF-DIAGONAL ELEMENTS NEED TO BE MULTIPLIED BY 2)

             1           2           3

    1    8.2475538
    2     .1058083  16.7253448
    3     .1058083   -.0607382  16.7253448

          TOTAL MULLIKEN AND LOWDIN ATOMIC POPULATIONS
       ATOM         MULL.POP.    CHARGE          LOW.POP.     CHARGE
    1 O             8.459170    -.459170         8.225438    -.225438
    2 CL1          16.770415     .229585        16.887281     .112719
    3 CL1          16.770415     .229585        16.887281     .112719

          -------------------------------
          BOND ORDER AND VALENCE ANALYSIS     BOND ORDER THRESHOLD= .050
          -------------------------------

                   BOND                       BOND                       BOND
  ATOM PAIR DIST  ORDER      ATOM PAIR DIST  ORDER      ATOM PAIR DIST  ORDER
    1   2  1.703   .894        1   3  1.703   .894

                       TOTAL       BONDED        FREE
      ATOM            VALENCE     VALENCE     VALENCE
    1 O                 1.788       1.788        .000
    2 CL1                .929        .929        .000
    3 CL1                .929        .929        .000

          ---------------------
          ELECTROSTATIC MOMENTS
          ---------------------

 POINT   1           X           Y           Z (BOHR)    CHARGE
                  .000000     .000000     .420616         .00 (A.U.)
         DX          DY          DZ         /D/  (DEBYE)
      .000000     .000000    1.131514    1.131514
 ...... END OF PROPERTY EVALUATION ......
 STEP CPU TIME =      .73 TOTAL CPU TIME =       61.5 (    1.0 MIN)
 TOTAL WALL CLOCK TIME=       61.5 SECONDS, CPU UTILIZATION IS 100.00%
  $VIB   
          IVIB=   0 IATOM=   0 ICOORD=   0 E=     -989.1148057056
  0.000000000E+00 0.000000000E+00-4.636686828E-05 2.015751266E-05 0.000000000E+00
  2.318344897E-05-2.015751266E-05 0.000000000E+00 2.318344897E-05
 -3.612066735E-14 1.320770796E-17 1.131513927E+00
 ......END OF GEOMETRY SEARCH......
 STEP CPU TIME =      .07 TOTAL CPU TIME =       61.5 (    1.0 MIN)
 TOTAL WALL CLOCK TIME=       61.5 SECONDS, CPU UTILIZATION IS 100.00%
 193680 WORDS OF DYNAMIC MEMORY USED
 EXECUTION OF GAMESS TERMINATED NORMALLY 10:20:14 12-16-1999     
             DICTNRY length        375 KB
